48
Lattice="6.788079999999999 0.0 0.0 0.0 9.453619999999999 0.0 0.0 0.0 8.21902" Properties=species:S:1:pos:R:3:forces:R:3:magmoms:R:1 energy=-323.0390070472649 stress="0.009584946067713023 -3.3515032111677996e-20 -4.1630560005212e-15 -3.3515032111677996e-20 0.009163368455144592 -6.041428219617589e-15 -4.1630560005212e-15 -6.041428219617589e-15 0.008604958411339425" dipole="8.837121999789924e-13 0.038066314584963366 11.865429711617281" magmom=0.0 pbc="T T T"
H        0.00000000       2.36335773       1.03368808       0.00000000      -0.00000002      -0.00186650       0.00000000
H        1.69702000      -0.00004727       3.08844308       0.00000000      -0.00000002      -0.00209537       0.00000000
C       -0.00000000       2.36335773       4.04624786       0.00000000       0.00000016      -0.00029045       0.00000000
C        1.69702000       4.72676273       1.99149286      -0.00000000       0.00000016      -0.00055470       0.00000000
N        1.69702000       4.72676273       0.83565920      -0.00000000       0.00000071      -0.00078576       0.00000000
N        0.00000000       2.36335773       2.89041420       0.00000000       0.00000072      -0.00049829       0.00000000
H        0.00000000       2.36335773       5.14319808       0.00000000      -0.00000002      -0.00186650       0.00000000
H        1.69702000      -0.00004727       7.19795308       0.00000000      -0.00000002      -0.00209537       0.00000000
C       -0.00000000       2.36335773       8.15575786       0.00000000       0.00000016      -0.00029045       0.00000000
C        1.69702000       4.72676273       6.10100286      -0.00000000       0.00000016      -0.00055470       0.00000000
N        1.69702000       4.72676273       4.94516920      -0.00000000       0.00000071      -0.00078576       0.00000000
N        0.00000000       2.36335773       6.99992420       0.00000000       0.00000072      -0.00049829       0.00000000
H       -0.00000000       7.09016773       1.03368808       0.00000000      -0.00000002      -0.00186650       0.00000000
H        1.69702000       4.72676273       3.08844308      -0.00000000      -0.00000002      -0.00209537       0.00000000
C       -0.00000000       7.09016773       4.04624786       0.00000000       0.00000016      -0.00029045       0.00000000
C        1.69702000       9.45357273       1.99149286      -0.00000000       0.00000016      -0.00055470       0.00000000
N        1.69702000       9.45357273       0.83565920      -0.00000000       0.00000071      -0.00078576       0.00000000
N       -0.00000000       7.09016773       2.89041420       0.00000000       0.00000072      -0.00049829       0.00000000
H       -0.00000000       7.09016773       5.14319808       0.00000000      -0.00000002      -0.00186650       0.00000000
H        1.69702000       4.72676273       7.19795308      -0.00000000      -0.00000002      -0.00209537       0.00000000
C       -0.00000000       7.09016773       8.15575786       0.00000000       0.00000016      -0.00029045       0.00000000
C        1.69702000       9.45357273       6.10100286      -0.00000000       0.00000016      -0.00055470       0.00000000
N        1.69702000       9.45357273       4.94516920      -0.00000000       0.00000071      -0.00078576       0.00000000
N       -0.00000000       7.09016773       6.99992420       0.00000000       0.00000072      -0.00049829       0.00000000
H        3.39404000       2.36335773       1.03368808      -0.00000000      -0.00000002      -0.00186650       0.00000000
H        5.09106000      -0.00004727       3.08844308       0.00000000      -0.00000002      -0.00209537       0.00000000
C        3.39404000       2.36335773       4.04624786      -0.00000000       0.00000016      -0.00029045       0.00000000
C        5.09106000       4.72676273       1.99149286       0.00000000       0.00000016      -0.00055470       0.00000000
N        5.09106000       4.72676273       0.83565920       0.00000000       0.00000071      -0.00078576       0.00000000
N        3.39404000       2.36335773       2.89041420      -0.00000000       0.00000072      -0.00049829       0.00000000
H        3.39404000       2.36335773       5.14319808      -0.00000000      -0.00000002      -0.00186650       0.00000000
H        5.09106000      -0.00004727       7.19795308       0.00000000      -0.00000002      -0.00209537       0.00000000
C        3.39404000       2.36335773       8.15575786      -0.00000000       0.00000016      -0.00029045       0.00000000
C        5.09106000       4.72676273       6.10100286       0.00000000       0.00000016      -0.00055470       0.00000000
N        5.09106000       4.72676273       4.94516920       0.00000000       0.00000071      -0.00078576       0.00000000
N        3.39404000       2.36335773       6.99992420      -0.00000000       0.00000072      -0.00049829       0.00000000
H        3.39404000       7.09016773       1.03368808      -0.00000000      -0.00000002      -0.00186650       0.00000000
H        5.09106000       4.72676273       3.08844308       0.00000000      -0.00000002      -0.00209537       0.00000000
C        3.39404000       7.09016773       4.04624786      -0.00000000       0.00000016      -0.00029045       0.00000000
C        5.09106000       9.45357273       1.99149286       0.00000000       0.00000016      -0.00055470       0.00000000
N        5.09106000       9.45357273       0.83565920       0.00000000       0.00000071      -0.00078576       0.00000000
N        3.39404000       7.09016773       2.89041420      -0.00000000       0.00000072      -0.00049829       0.00000000
H        3.39404000       7.09016773       5.14319808      -0.00000000      -0.00000002      -0.00186650       0.00000000
H        5.09106000       4.72676273       7.19795308       0.00000000      -0.00000002      -0.00209537       0.00000000
C        3.39404000       7.09016773       8.15575786      -0.00000000       0.00000016      -0.00029045       0.00000000
C        5.09106000       9.45357273       6.10100286       0.00000000       0.00000016      -0.00055470       0.00000000
N        5.09106000       9.45357273       4.94516920       0.00000000       0.00000071      -0.00078576       0.00000000
N        3.39404000       7.09016773       6.99992420      -0.00000000       0.00000072      -0.00049829       0.00000000
