48
Lattice="6.788079999999999 0.0 0.0 0.0 9.453619999999999 0.0 0.0 0.0 8.11902" Properties=species:S:1:pos:R:3:forces:R:3:magmoms:R:1 energy=-322.85777662436095 stress="0.00981251121369868 -2.3201103281389133e-19 3.3557767558372544e-17 -2.3201103281389133e-19 0.009371400512796653 1.5675939453533173e-10 3.3557767558372544e-17 1.5675939453533173e-10 0.008766290591353724" dipole="-2.1850279367165005e-10 0.037914449379594255 -2.0397698099902395" magmom=0.0 pbc="T T T"
H        0.00000000       2.36335773       1.09244759       0.00000000       0.00000007      -0.00068398       0.00000000
H        1.69702000      -0.00004726       3.11528088      -0.00000000       0.00000013       0.00337900       0.00000000
C        0.00000000       2.36335784       4.05314290       0.00000000       0.00000063      -0.00236419       0.00000000
C        1.69702000       4.72676279       2.01633848      -0.00000000       0.00000052      -0.00013941       0.00000000
N        1.69702000       4.72676296       0.86117931      -0.00000000       0.00000126      -0.00046676       0.00000000
N        0.00000000       2.36335810       2.89798951       0.00000000       0.00000121      -0.00107732       0.00000000
H        0.00000000       2.36335773       5.15214510       0.00000000       0.00000013      -0.00111117       0.00000000
H        1.69702000      -0.00004728       7.17473541      -0.00000000       0.00000007       0.00119479       0.00000000
C        0.00000000       2.36335785       8.11250373       0.00000000       0.00000065       0.00095227       0.00000000
C        1.69702000       4.72676285       6.07579216      -0.00000000       0.00000058       0.00459940       0.00000000
N        1.69702000       4.72676310       4.92061355      -0.00000000       0.00000105       0.00323648       0.00000000
N        0.00000000       2.36335813       6.95736027       0.00000000       0.00000116      -0.00130942       0.00000000
H        0.00000000       7.09016773       1.09244759       0.00000000       0.00000007      -0.00068398       0.00000000
H        1.69702000       4.72676274       3.11528088      -0.00000000       0.00000013       0.00337900       0.00000000
C        0.00000000       7.09016784       4.05314290       0.00000000       0.00000063      -0.00236419       0.00000000
C        1.69702000       9.45357279       2.01633848      -0.00000000       0.00000052      -0.00013941       0.00000000
N        1.69702000       9.45357296       0.86117931      -0.00000000       0.00000126      -0.00046676       0.00000000
N        0.00000000       7.09016810       2.89798951       0.00000000       0.00000121      -0.00107732       0.00000000
H        0.00000000       7.09016773       5.15214510       0.00000000       0.00000013      -0.00111117       0.00000000
H        1.69702000       4.72676272       7.17473541      -0.00000000       0.00000007       0.00119479       0.00000000
C        0.00000000       7.09016785       8.11250373       0.00000000       0.00000065       0.00095227       0.00000000
C        1.69702000       9.45357285       6.07579216      -0.00000000       0.00000058       0.00459940       0.00000000
N        1.69702000       9.45357310       4.92061355       0.00000000       0.00000105       0.00323648       0.00000000
N        0.00000000       7.09016813       6.95736027       0.00000000       0.00000116      -0.00130942       0.00000000
H        3.39404000       2.36335773       1.09244759      -0.00000000       0.00000007      -0.00068398       0.00000000
H        5.09106000      -0.00004726       3.11528088       0.00000000       0.00000013       0.00337900       0.00000000
C        3.39404000       2.36335784       4.05314290       0.00000000       0.00000063      -0.00236419       0.00000000
C        5.09106000       4.72676279       2.01633848       0.00000000       0.00000052      -0.00013941       0.00000000
N        5.09106000       4.72676296       0.86117931       0.00000000       0.00000126      -0.00046676       0.00000000
N        3.39404000       2.36335810       2.89798951      -0.00000000       0.00000121      -0.00107732       0.00000000
H        3.39404000       2.36335773       5.15214510      -0.00000000       0.00000013      -0.00111117       0.00000000
H        5.09106000      -0.00004728       7.17473541       0.00000000       0.00000007       0.00119479       0.00000000
C        3.39404000       2.36335785       8.11250373       0.00000000       0.00000065       0.00095227       0.00000000
C        5.09106000       4.72676285       6.07579216      -0.00000000       0.00000058       0.00459940       0.00000000
N        5.09106000       4.72676310       4.92061355       0.00000000       0.00000105       0.00323648       0.00000000
N        3.39404000       2.36335813       6.95736027      -0.00000000       0.00000116      -0.00130942       0.00000000
H        3.39404000       7.09016773       1.09244759      -0.00000000       0.00000007      -0.00068398       0.00000000
H        5.09106000       4.72676274       3.11528088       0.00000000       0.00000013       0.00337900       0.00000000
C        3.39404000       7.09016784       4.05314290       0.00000000       0.00000063      -0.00236419       0.00000000
C        5.09106000       9.45357279       2.01633848       0.00000000       0.00000052      -0.00013941       0.00000000
N        5.09106000       9.45357296       0.86117931       0.00000000       0.00000126      -0.00046676       0.00000000
N        3.39404000       7.09016810       2.89798951      -0.00000000       0.00000121      -0.00107732       0.00000000
H        3.39404000       7.09016773       5.15214510      -0.00000000       0.00000013      -0.00111117       0.00000000
H        5.09106000       4.72676272       7.17473541       0.00000000       0.00000007       0.00119479       0.00000000
C        3.39404000       7.09016785       8.11250373       0.00000000       0.00000065       0.00095227       0.00000000
C        5.09106000       9.45357285       6.07579216       0.00000000       0.00000058       0.00459940       0.00000000
N        5.09106000       9.45357310       4.92061355      -0.00000000       0.00000105       0.00323648       0.00000000
N        3.39404000       7.09016813       6.95736027      -0.00000000       0.00000116      -0.00130942       0.00000000
