22
Lattice="40.0 0.0 0.0 0.0 20.0 0.0 0.0 0.0 20.0" Properties=species:S:1:pos:R:3:forces:R:3:magmoms:R:1 energy=-145.39500923999998 stress="0.00023353253638988566 -5.348973320881952e-09 -4.250467714726499e-09 -5.348973320881952e-09 3.893238060661134e-05 -2.9409366850249325e-06 -4.250467714726499e-09 -2.9409366850249325e-06 4.428345107455959e-05" dipole="_JSON [[0.0, 0.0, 0.0]]" magmom=0.0 free_energy=-145.39114392 pbc="T T T"
C       19.25950624      10.00000434       9.99996172       0.00580871      -0.00020353       0.00003217       0.00000000
C       18.53695694       8.79590760       9.92510128       0.00707658       0.03261748       0.00157589       0.00000000
C       17.14211614       8.79551871       9.92531393      -0.11499323      -0.02741224      -0.00169691       0.00000000
C       16.43781671      10.00000486       9.99996472      -2.29587950      -0.00014886       0.00002288       0.00000000
C       17.14212136      11.20448493      10.07461721      -0.11529617       0.02750789       0.00180771       0.00000000
C       18.53695639      11.20409647      10.07482012       0.00736017      -0.03238335      -0.00150642       0.00000000
C       23.56136331       9.99998657       9.99999636       0.00012877       0.00008694      -0.00001834       0.00000000
C       22.85706744       9.08520297       9.21287113       0.00050279      -0.00004809      -0.00008536       0.00000000
C       21.46223527       9.08528681       9.21336376      -0.00045161      -0.00001393      -0.00013568       0.00000000
C       20.73969230       9.99998732       9.99999078       0.00064665       0.00012813       0.00003169       0.00000000
C       21.46223090      10.91468789      10.78662622      -0.00024440      -0.00002979      -0.00012759       0.00000000
C       22.85706799      10.91477806      10.78711516       0.00014984      -0.00020220      -0.00022297       0.00000000
H       19.07814036       7.84886713       9.89282863      -0.00662280      -0.00245294      -0.00013271       0.00000000
H       16.60198813       7.84866429       9.87634059       0.00751383       0.00195075       0.00010051       0.00000000
H       15.24701274      10.00000176       9.99997377       2.50457503       0.00002897      -0.00000259       0.00000000
H       16.60198612      12.15133250      10.12366691       0.00757351      -0.00194261      -0.00026039       0.00000000
H       19.07813689      12.15114169      10.10711434      -0.00665198       0.00235598       0.00013325       0.00000000
H       24.65218434      10.00000274       9.99997738      -0.00065353      -0.00001577       0.00001897       0.00000000
H       23.39720992       8.37293696       8.58706291      -0.00035371       0.00015141       0.00034875       0.00000000
H       20.92110466       8.38441729       8.57556050       0.00002622      -0.00019612      -0.00036895       0.00000000
H       20.92110119      11.61559625      11.42438075      -0.00004692       0.00022173       0.00049667       0.00000000
H       23.39720465      11.62709258      11.41285260      -0.00016825       0.00000015      -0.00001056       0.00000000
