                  Welcome to Q-Chem
     A Quantum Leap Into The Future Of Chemistry


 Q-Chem 6.0 (devel), Q-Chem, Inc., Pleasanton, CA (2022)

 E. Epifanovsky,  A. T. B. Gilbert,  Xintian Feng,  Joonho Lee,  Yuezhi Mao,  
 N. Mardirossian,  P. Pokhilko,  A. White,  M. Wormit,  M. P. Coons,  
 A. L. Dempwolff,  Zhengting Gan,  D. Hait,  P. R. Horn,  L. D. Jacobson,  
 I. Kaliman,  J. Kussmann,  A. W. Lange,  Ka Un Lao,  D. S. Levine,  Jie Liu,  
 S. C. McKenzie,  A. F. Morrison,  K. Nanda,  F. Plasser,  D. R. Rehn,  
 M. L. Vidal,  Zhi-Qiang You,  Ying Zhu,  B. Alam,  B. Albrecht,  
 A. Aldossary,  E. Alguire,  J. H. Andersen,  V. Athavale,  D. Barton,  
 K. Begam,  A. Behn,  N. Bellonzi,  Y. A. Bernard,  E. J. Berquist,  
 H. Burton,  A. Carreras,  K. Carter-Fenk,  Romit Chakraborty,  
 Chandrima Chakravarty,  Junhan Chen,  A. D. Chien,  K. D. Closser,  
 V. Cofer-Shabica,  L. Cunha,  S. Dasgupta,  Jia Deng,  M. de Wergifosse,  
 M. Diedenhofen,  Hainam Do,  S. Ehlert,  Po-Tung Fang,  S. Fatehi,  
 Qingguo Feng,  T. Friedhoff,  B. Ganoe,  J. Gayvert,  Qinghui Ge,  
 G. Gidofalvi,  M. Goldey,  J. Gomes,  C. Gonzalez-Espinoza,  S. Gulania,  
 A. Gunina,  J. A. Gyamfi,  M. W. D. Hanson-Heine,  P. H. P. Harbach,  
 A. W. Hauser,  M. F. Herbst,  M. Hernandez Vera,  M. Hodecker,  
 Z. C. Holden,  S. Houck,  Xunkun Huang,  Kerwin Hui,  B. C. Huynh,  
 K. Ikeda,  M. Ivanov,  Hyunjun Ji,  Zuxin Jin,  Hanjie Jiang,  B. Kaduk,  
 S. Kaehler,  R. Kang,  K. Khistyaev,  Jaehoon Kim,  Yongbin Kim,  
 P. Klunzinger,  Z. Koczor-Benda,  Joong Hoon Koh,  D. Kosenkov,  
 Saikiran Kotaru,  L. Koulias,  T. Kowalczyk,  C. M. Krauter,  K. Kue,  
 A. Kunitsa,  T. Kus,  A. Landau,  K. V. Lawler,  D. Lefrancois,  S. Lehtola,  
 Rain Li,  Shaozhi Li,  Yi-Pei Li,  Jiashu Liang,  M. Liebenthal,  
 Hung-Hsuan Lin,  You-Sheng Lin,  Fenglai Liu,  Kuan-Yu Liu,  
 M. Loipersberger,  A. Luenser,  C. Malbon,  A. Manjanath,  P. Manohar,  
 E. Mansoor,  S. F. Manzer,  Shan-Ping Mao,  A. V. Marenich,  T. Markovich,  
 S. Mason,  F. Matz,  S. A. Maurer,  P. F. McLaughlin,  M. F. S. J. Menger,  
 J.-M. Mewes,  S. A. Mewes,  P. Morgante,  Mohammad Mostafanejad,  
 J. W. Mullinax,  K. J. Oosterbaan,  G. Paran,  V. Parravicini,  
 Alexander C. Paul,  Suranjan K. Paul,  F. Pavosevic,  Zheng Pei,  S. Prager,  
 E. I. Proynov,  E. Ramos,  B. Rana,  A. E. Rask,  A. Rettig,  R. M. Richard,  
 F. Rob,  E. Rossomme,  T. Scheele,  M. Scheurer,  M. Schneider,  
 P. E. Schneider,  N. Sergueev,  S. M. Sharada,  Hengyuan Shen,  
 W. Skomorowski,  D. W. Small,  C. J. Stein,  Yingli Su,  Yu-Chuan Su,  
 E. J. Sundstrom,  Zhen Tao,  J. Thirman,  Hung-Yi Tsai,  T. Tsuchimochi,  
 N. M. Tubman,  C. Utku,  S. P. Veccham,  O. Vydrov,  J. Wenzel,  
 Jonathan Wong,  J. Witte,  A. Yamada,  Chou-Hsun Yang,  Kun Yao,  
 S. Yeganeh,  S. R. Yost,  A. Zech,  F. Zeller,  Igor Ying Zhang,  
 Xing Zhang,  Yu Zhang,  D. Zuev,  A. Aspuru-Guzik,  A. T. Bell,  
 N. A. Besley,  K. B. Bravaya,  B. R. Brooks,  D. Casanova,  Jeng-Da Chai,  
 Hsing-Ta Chen,  S. Coriani,  C. J. Cramer,  A. E. DePrince, III,  
 R. A. DiStasio Jr.,  A. Dreuw,  B. D. Dunietz,  T. R. Furlani,  
 W. A. Goddard III,  S. Grimme,  S. Hammes-Schiffer,  T. Head-Gordon,  
 W. J. Hehre,  Chao-Ping Hsu,  T.-C. Jagau,  Yousung Jung,  A. Klamt,  
 Jing Kong,  D. S. Lambrecht,  Xiangyuan Li,  WanZhen Liang,  N. J. Mayhall,  
 C. W. McCurdy,  J. B. Neaton,  T. Neudecker,  C. Ochsenfeld,  
 J. A. Parkhill,  R. Peverati,  V. A. Rassolov,  Haisheng Ren,  Yihan Shao,  
 L. V. Slipchenko,  R. P. Steele,  J. E. Subotnik,  A. J. W. Thom,  
 A. Tkatchenko,  D. G. Truhlar,  T. Van Voorhis,  Fan Wang,  
 T. A. Wesolowski,  K. B. Whaley,  H. L. Woodcock III,  P. M. Zimmerman,  
 S. Faraji,  P. M. W. Gill,  M. Head-Gordon,  J. M. Herbert,  A. I. Krylov

 Contributors to earlier versions of Q-Chem not listed above: 
 R. D. Adamson,  B. Austin,  R. Baer,  J. Baker,  G. J. O. Beran,  
 K. Brandhorst,  S. T. Brown,  E. F. C. Byrd,  Arup K. Chakraborty,  
 G. K. L. Chan,  Chun-Min Chang,  Yunqing Chen,  C.-L. Cheng,  
 Siu Hung Chien,  D. M. Chipman,  D. L. Crittenden,  H. Dachsel,  
 R. J. Doerksen,  A. D. Dutoi,  R. G. Edgar,  J. Fosso-Tande,  
 L. Fusti-Molnar,  D. Ghosh,  A. Ghysels,  A. Golubeva-Zadorozhnaya,  
 J. Gonthier,  M. S. Gordon,  S. R. Gwaltney,  G. Hawkins,  J. E. Herr,  
 A. Heyden,  S. Hirata,  E. G. Hohenstein,  G. Kedziora,  F. J. Keil,  
 C. Kelley,  Jihan Kim,  R. A. King,  R. Z. Khaliullin,  P. P. Korambath,  
 W. Kurlancheek,  A. Laurent,  A. M. Lee,  M. S. Lee,  S. V. Levchenko,  
 Ching Yeh Lin,  D. Liotard,  E. Livshits,  R. C. Lochan,  I. Lotan,  
 L. A. Martinez-Martinez,  P. E. Maslen,  N. Nair,  D. P. O'Neill,  
 D. Neuhauser,  E. Neuscamman,  C. M. Oana,  R. Olivares-Amaya,  R. Olson,  
 T. M. Perrine,  B. Peters,  P. A. Pieniazek,  A. Prociuk,  Y. M. Rhee,  
 J. Ritchie,  M. A. Rohrdanz,  E. Rosta,  N. J. Russ,  H. F. Schaefer III,  
 M. W. Schmidt,  N. E. Schultz,  S. Sharma,  N. Shenvi,  C. D. Sherrill,  
 A. C. Simmonett,  A. Sodt,  T. Stein,  D. Stuck,  K. S. Thanthiriwatte,  
 V. Vanovschi,  L. Vogt,  Tao Wang,  A. Warshel,  M. A. Watson,  
 C. F. Williams,  Q. Wu,  X. Xu,  Jun Yang,  W. Zhang,  Yan Zhao

   Please cite Q-Chem as follows:
  "Software for the frontiers of quantum chemistry:
   An overview of developments in the Q-Chem 5 package"
   J. Chem. Phys. 155, 084801 (2021)
   https://doi.org/10.1063/5.0055522 (open access)

 Q-Chem 6.0.0 for Intel X86 EM64T Linux

 Parts of Q-Chem use Armadillo 9.900.5 (Nocturnal Misbehaviour).
 http://arma.sourceforge.net/

 Q-Chem begins on Wed Aug  2 12:35:44 2023  

 Host: 
0

     Scratch files written to /mnt/scratch/hwang/qchem364784//
 Processing $rem in /opt/qchem-6.0.0/config/preferences:
 Processing $rem in /home/hwang/.qchemrc:

 Checking the input file for inconsistencies... 	...done.

--------------------------------------------------------------
User input:
--------------------------------------------------------------
$comment
   ASE generated input file
$end

$rem
   DISTORT                     TRUE
   METHOD                      PBE
   BASIS                       CC-PVDZ
   JOBTYPE                     OPT
   DFT_D                       D3_BJ
   GEOM_OPT_MAX_CYCLES         150
   USE_LIBQINTS                1
   MAX_SCF_CYCLES              150
   SYM_IGNORE                  TRUE
$end

$molecule
   0 1
   C  0.436880  -0.756690  0.773090
   C  0.436880  0.756690  0.773090
   C  -0.873750  0.000000  0.773090
   C  0.436880  0.756690  -0.773090
   C  0.436880  -0.756690  -0.773090
   C  -0.873750  0.000000  -0.773090
   H  0.838750  -1.452750  1.491410
   H  0.838750  1.452750  1.491410
   H  -1.677490  0.000000  1.491410
   H  0.838750  1.452750  -1.491410
   H  0.838750  -1.452750  -1.491410
   H  -1.677490  0.000000  -1.491410
$end

$distort
   model                       gostshyp
   pressure                    50000
   npoints_heavy               302
   npoints_hydrogen            302
   scaling                     1.0
$end

--------------------------------------------------------------
 Adding empirical dispersion correction 
 ----------------------------------------------------------------
 Doing -D3(BJ) with
 s6  =   1.00000
 s8  =   0.78750
 a1  =   0.42890
 a2  =   4.44070
 -D3 energy without 3body term =     -0.0095955452 hartrees
 ----------------------------------------------------------------
             Standard Nuclear Orientation (Angstroms)
    I     Atom           X                Y                Z
 ----------------------------------------------------------------
    1      C       0.4368800000    -0.7566900000     0.7730900000
    2      C       0.4368800000     0.7566900000     0.7730900000
    3      C      -0.8737500000     0.0000000000     0.7730900000
    4      C       0.4368800000     0.7566900000    -0.7730900000
    5      C       0.4368800000    -0.7566900000    -0.7730900000
    6      C      -0.8737500000     0.0000000000    -0.7730900000
    7      H       0.8387500000    -1.4527500000     1.4914100000
    8      H       0.8387500000     1.4527500000     1.4914100000
    9      H      -1.6774900000     0.0000000000     1.4914100000
   10      H       0.8387500000     1.4527500000    -1.4914100000
   11      H       0.8387500000    -1.4527500000    -1.4914100000
   12      H      -1.6774900000     0.0000000000    -1.4914100000
 ----------------------------------------------------------------
 Nuclear Repulsion Energy =         221.40613775 hartrees
 There are       21 alpha and       21 beta electrons
 Requested basis set is cc-pVDZ
 There are 54 shells and 114 basis functions

 Total QAlloc Memory Limit   2000 MB
 Mega-Array Size       188 MB
 MEM_STATIC part       192 MB

 -----------------------------------------------------------------------
                STARTING GEOMETRY OPTIMIZER USING LIBOPT3
                by Peter F. McLaughlin, Yu Zhang, Evgeny Epifanovsky
 -----------------------------------------------------------------------

              Initial Energy and Gradient Calculation
  Checking Topology for Ill-Behaving Coordinates
  Done Checking Topology
 Adding empirical dispersion correction 
 ----------------------------------------------------------------
 Doing -D3(BJ) with
 s6  =   1.00000
 s8  =   0.78750
 a1  =   0.42890
 a2  =   4.44070
 -D3 energy without 3body term =     -0.0095955452 hartrees
 ----------------------------------------------------------------
             Standard Nuclear Orientation (Angstroms)
    I     Atom           X                Y                Z
 ----------------------------------------------------------------
    1      C       0.4368800000    -0.7566900000     0.7730900000
    2      C       0.4368800000     0.7566900000     0.7730900000
    3      C      -0.8737500000     0.0000000000     0.7730900000
    4      C       0.4368800000     0.7566900000    -0.7730900000
    5      C       0.4368800000    -0.7566900000    -0.7730900000
    6      C      -0.8737500000     0.0000000000    -0.7730900000
    7      H       0.8387500000    -1.4527500000     1.4914100000
    8      H       0.8387500000     1.4527500000     1.4914100000
    9      H      -1.6774900000     0.0000000000     1.4914100000
   10      H       0.8387500000     1.4527500000    -1.4914100000
   11      H       0.8387500000    -1.4527500000    -1.4914100000
   12      H      -1.6774900000     0.0000000000    -1.4914100000
 ----------------------------------------------------------------
 Nuclear Repulsion Energy =         221.40613775 hartrees
 There are       21 alpha and       21 beta electrons

                       Distance Matrix (Angstroms)
             C (  1)   C (  2)   C (  3)   C (  4)   C (  5)   C (  6)
   C (  2)  1.513380
   C (  3)  1.513384  1.513384
   C (  4)  2.163560  1.546180  2.163563
   C (  5)  1.546180  2.163560  2.163563  1.513380
   C (  6)  2.163563  2.163563  1.546180  1.513384  1.513384
   H (  7)  1.077953  2.357776  2.357779  3.189214  2.402906  3.189216
   H (  8)  2.357776  1.077953  2.357779  2.402906  3.189214  3.189216
   H (  9)  2.357779  2.357779  1.077953  3.189216  3.189216  2.402906
   H ( 10)  3.189214  2.402906  3.189216  1.077953  2.357776  2.357779
   H ( 11)  2.402906  3.189214  3.189216  2.357776  1.077953  2.357779
   H ( 12)  3.189216  3.189216  2.402906  2.357779  2.357779  1.077953
             H (  7)   H (  8)   H (  9)   H ( 10)   H ( 11)
   H (  8)  2.905500
   H (  9)  2.905503  2.905503
   H ( 10)  4.164030  2.982820  4.164032
   H ( 11)  2.982820  4.164030  4.164032  2.905500
   H ( 12)  4.164032  4.164032  2.982820  2.905503  2.905503

 Requested basis set is cc-pVDZ
 There are 54 shells and 114 basis functions
 A cutoff of  1.0D-12 yielded   1485 shell pairs
 There are      6669 function pairs (      7404 Cartesian)
 Smallest overlap matrix eigenvalue = 6.43E-04

 Scale SEOQF with 1.000000e-01/1.000000e+00/1.000000e+00

 Standard Electronic Orientation quadrupole field applied
 Nucleus-field energy     =    -0.0000000207 hartrees
 Guess from superposition of atomic densities
 Warning:  Energy on first SCF cycle will be non-variational
 SAD guess density has 42.000000 electrons

 -----------------------------------------------------------------------
  General SCF calculation program by
  Eric Jon Sundstrom, Paul Horn, Yuezhi Mao, Dmitri Zuev, Alec White,
  David Stuck, Shaama M.S., Shane Yost, Joonho Lee, David Small,
  Daniel Levine, Susi Lehtola, Hugh Burton, Evgeny Epifanovsky,
  Bang C. Huynh
 -----------------------------------------------------------------------
 Exchange:  PBE      Correlation:  PBE
 Using SG-1 standard quadrature grid
 Dispersion:   Grimme D3
 Discretize the solute cavity surface with Lebedev spheres
	Using 302 Lebedev grid points for each H atom
	Using 302 Lebedev grid points for other atoms
	Atomic van der Waals radii (Bondi set) will be scaled by 1.00
 Using smooth SwiG surface discretization
 Remove points where switching function is < 1.0e-08
 Keep 1664 surface tesserae and discard 1960 interior tesserae
 Molecular Surface Area = 97.803 Angst**2

 Discretize the solute cavity surface with Lebedev spheres
	Using 302 Lebedev grid points for each H atom
	Using 302 Lebedev grid points for other atoms
	Atomic van der Waals radii (Bondi set) will be scaled by 1.00
 Using smooth SwiG surface discretization
 Remove points where switching function is < 1.0e-08
 Keep 1664 surface tesserae and discard 1960 interior tesserae
 Molecular Surface Area = 97.803 Angst**2

 Discretize the solute cavity surface with Lebedev spheres
	Using 302 Lebedev grid points for each H atom
	Using 302 Lebedev grid points for other atoms
	Atomic van der Waals radii (Bondi set) will be scaled by 1.00
 Using smooth SwiG surface discretization
 Remove points where switching function is < 1.0e-08
 Keep 1664 surface tesserae and discard 1960 interior tesserae
 Molecular Surface Area = 97.803 Angst**2

******************** LIBDISTORT ********************
  Authors: Maximilian Scheurer, Tim Stauch, Felix Zeller
  Applying pressure using GOSTSHYP model.
  Please cite: 10.1021/acs.jctc.0c01212
  ------------------------------
    Pressure = 50000.00 MPa
    Pressure = 1.70e-03 au
   Tessellation Info: 
     Points (Hydrogen Atoms)            = 302
     Points (Heavy Atoms)               = 302
     Tessellation Sphere Scaling Factor = 1.00
****************************************************

 0 negative amplitudes detected
 A restricted SCF calculation will be
 performed using DIIS
 SCF converges when DIIS error is below 1.0e-08
 ---------------------------------------
  Cycle       Energy         DIIS error
 ---------------------------------------
 0 negative amplitudes detected
    1    -232.9835923307      7.78e-02  
 0 negative amplitudes detected
    2    -231.3608395745      8.79e-03  
 0 negative amplitudes detected
    3    -231.1931270644      1.39e-02  
 0 negative amplitudes detected
    4    -231.5024170081      6.15e-04  
 0 negative amplitudes detected
    5    -231.5029480228      1.15e-04  
 0 negative amplitudes detected
    6    -231.5029701696      2.59e-05  
 0 negative amplitudes detected
    7    -231.5029712573      6.34e-06  
 0 negative amplitudes detected
    8    -231.5029713216      2.27e-06  
 0 negative amplitudes detected
    9    -231.5029713287      9.44e-07  
 0 negative amplitudes detected
   10    -231.5029713302      1.02e-08  
   11    -231.5029713302      4.17e-10  Convergence criterion met
 ---------------------------------------
 SCF time:   CPU 21.51s  wall 5.00s 
 SCF   energy in the final basis set =     -231.5029713302
 Total energy in the final basis set =     -231.5029713302

 --------------------------------------------------------------

                    Orbital Energies (a.u.)
 --------------------------------------------------------------

 Alpha MOs
 -- Occupied --
 -9.8782  -9.8782  -9.8780  -9.8780  -9.8780  -9.8780  -0.8780  -0.6655
 -0.5637  -0.5636  -0.4684  -0.4461  -0.4461  -0.3787  -0.3676  -0.3386
 -0.3386  -0.2360  -0.2360  -0.1753  -0.1753
 -- Virtual --
  0.0698   0.0813   0.0988   0.1410   0.1411   0.1570   0.1626   0.1628
  0.1952   0.1953   0.2071   0.2423   0.2423   0.3349   0.3621   0.3622
  0.4163   0.4546   0.4834   0.4834   0.4908   0.4908   0.5416   0.5416
  0.5797   0.6109   0.6110   0.6321   0.6628   0.6629   0.6780   0.6846
  0.6869   0.6871   0.7191   0.7191   0.7245   0.7625   0.9803   0.9806
  1.0134   1.0136   1.0426   1.1286   1.1575   1.2156   1.2156   1.3411
  1.3443   1.3443   1.4006   1.4008   1.4210   1.4211   1.4595   1.4599
  1.4910   1.5889   1.5895   1.6112   1.6112   1.6362   1.6605   1.6635
  1.7304   1.7305   1.8076   1.8352   1.8353   1.8521   1.8522   1.8869
  1.9537   1.9608   1.9609   2.0118   2.0118   2.0274   2.0965   2.0965
  2.1205   2.2965   2.3085   2.3085   2.3384   2.4016   2.4017   2.4129
  2.6330   2.6331   2.6835   3.2785   3.2785
 --------------------------------------------------------------

          Ground-State Mulliken Net Atomic Charges

     Atom                 Charge (a.u.)
  ----------------------------------------
      1 C                    -0.027028
      2 C                    -0.027028
      3 C                    -0.027021
      4 C                    -0.027028
      5 C                    -0.027028
      6 C                    -0.027021
      7 H                     0.026913
      8 H                     0.026913
      9 H                     0.027251
     10 H                     0.026913
     11 H                     0.026913
     12 H                     0.027251
  ----------------------------------------
  Sum of atomic charges =     0.000000

 -----------------------------------------------------------------
                    Cartesian Multipole Moments
 -----------------------------------------------------------------
    Charge (ESU x 10^10)
                -0.0000
    Dipole Moment (Debye)
         X      -0.0049      Y      -0.0000      Z       0.0000
       Tot       0.0049
    Quadrupole Moments (Debye-Ang)
        XX     -34.0922     XY      -0.0000     YY     -34.0972
        XZ       0.0000     YZ       0.0000     ZZ     -31.6962
    Octopole Moments (Debye-Ang^2)
       XXX      -4.5072    XXY      -0.0000    XYY       4.4700
       YYY      -0.0000    XXZ      -0.0000    XYZ      -0.0000
       YYZ      -0.0000    XZZ      -0.0142    YZZ      -0.0000
       ZZZ       0.0000
    Hexadecapole Moments (Debye-Ang^3)
      XXXX    -135.3656   XXXY       0.0000   XXYY     -45.1347
      XYYY      -0.0000   YYYY    -135.4179   XXXZ       0.0000
      XXYZ       0.0000   XYYZ      -0.0000   YYYZ       0.0000
      XXZZ     -49.9369   XYZZ      -0.0000   YYZZ     -49.9615
      XZZZ       0.0000   YZZZ       0.0000   ZZZZ    -187.4479
 -----------------------------------------------------------------
 Calculating analytic gradient of the SCF energy
 Call libqints based aoints job 111
 0 negative amplitudes detected
 Call libqints based aoints job 120
 Gradient of SCF Energy
            1           2           3           4           5           6
    1  -0.0002787  -0.0002787  -0.0009853  -0.0002787  -0.0002787  -0.0009853
    2   0.0008191  -0.0008191   0.0000000  -0.0008191   0.0008191   0.0000000
    3   0.0001582   0.0001582   0.0004712  -0.0001582  -0.0001582  -0.0004712
            7           8           9          10          11          12
    1   0.0006194   0.0006194   0.0003039   0.0006194   0.0006194   0.0003039
    2  -0.0003130   0.0003130  -0.0000000   0.0003130  -0.0003130  -0.0000000
    3  -0.0010029  -0.0010029   0.0012935   0.0010029   0.0010029  -0.0012935
 Max gradient component =       1.293E-03
 RMS gradient           =       6.447E-04
 Gradient time:  CPU 62.32 s  wall 15.60 s

 *****************************************************
             Starting BFGS Algorithm
 *****************************************************
            LIBOPT3 RUN PARAMETERS

  Geometry Optimization Coordinates :
	Delocalized Natural Internal Coordinates

  Step Length Selection Method :
	Eigenvector Following Algorithm

  Convergence Criteria :
	Max Gradient Component    	3.00000000e-04
	Max Displacement Component	1.20000000e-03
	Absolute Energy Difference	1.00000000e-06

  Initial Hessian :
	Approximate Hessian - Simple Internal Coordinate Scaled

  Type of Verification :
	Verify with final updated Hessian
 *****************************************************

	OPTIMIZATION CYCLE:	1

 Scaling Magnitude of Eigenvalues
 	Minimum: -25.00000000	 Maximum: 25.00000000
 30 Hessian Eigenvalues to form next step
   0.10317222   0.10580764   0.10580767   0.10641015   0.10697624
   0.10894292   0.10894299   0.12970246   0.12970255   0.12990813
   0.12990822   0.14210031   0.14213933   0.14594293   0.14594310
   0.23368699   0.23368755   0.31293771   0.31293856   0.31659226
   0.31659297   0.39997701   0.50000000   0.50000000   0.50000000
   0.50000000   0.50000000   0.50000000   0.50000000   0.50000000


 Minimum Search taking a RFO step
 Searching for Lambda that minimizes along all modes
	Value of Lambda  -0.00006602
	Norm of Stepsize  0.01992938
	RMS of Stepsize  0.00363859

	Performing Iterative Coordinate Back-Transformation

	  Starting from Previous Position

	  iter:	0	rms: 3.2485910077e-03	maxdev: 8.1659321116e-03
	  iter:	1	rms: 5.9308678667e-06	maxdev: 1.4856923124e-05
	  iter:	2	rms: 1.1838961430e-11	maxdev: 3.9382544946e-11	 Success!

	Finished Iterative Coordinate Back-Transformation
 Adding empirical dispersion correction 
 ----------------------------------------------------------------
 Doing -D3(BJ) with
 s6  =   1.00000e+00
 s8  =   7.87500e-01
 a1  =   4.28900e-01
 a2  =   4.44070e+00
 -D3 energy without 3body term =     -9.5958200612e-03 hartrees
 ----------------------------------------------------------------
             Standard Nuclear Orientation (Angstroms)
    I     Atom           X                Y                Z
 ----------------------------------------------------------------
    1      C       0.4378876570    -0.7569046771     0.7736858783
    2      C       0.4378876570     0.7569046771     0.7736858783
    3      C      -0.8723178330    -0.0000000000     0.7718584960
    4      C       0.4378876570     0.7569046771    -0.7736858783
    5      C       0.4378876570    -0.7569046771    -0.7736858783
    6      C      -0.8723178330     0.0000000000    -0.7718584960
    7      H       0.8372361277    -1.4519761558     1.4947378001
    8      H       0.8372361277     1.4519761558     1.4947378001
    9      H      -1.6779097364     0.0000000000     1.4870887218
   10      H       0.8372361277     1.4519761558    -1.4947378001
   11      H       0.8372361277    -1.4519761558    -1.4947378001
   12      H      -1.6779097364     0.0000000000    -1.4870887218
 ----------------------------------------------------------------
 Nuclear Repulsion Energy =         221.41237948 hartrees
 There are       21 alpha and       21 beta electrons

                       Distance Matrix (Angstroms)
             C (  1)   C (  2)   C (  3)   C (  4)   C (  5)   C (  6)
   C (  2)  1.513809
   C (  3)  1.513125  1.513125
   C (  4)  2.164712  1.547372  2.162926
   C (  5)  1.547372  2.164712  2.162926  1.513809
   C (  6)  2.162926  2.162926  1.543717  1.513125  1.513125
   H (  7)  1.078202  2.357658  2.356558  3.191297  2.405899  3.188772
   H (  8)  2.357658  1.078202  2.356558  2.405899  3.191297  3.188772
   H (  9)  2.357636  2.357636  1.077280  3.187570  3.187570  2.398295
   H ( 10)  3.191297  2.405899  3.188772  1.078202  2.357658  2.356558
   H ( 11)  2.405899  3.191297  3.188772  2.357658  1.078202  2.356558
   H ( 12)  3.187570  3.187570  2.398295  2.357636  2.357636  1.077280
             H (  7)   H (  8)   H (  9)   H ( 10)   H ( 11)
   H (  8)  2.903952
   H (  9)  2.904178  2.904178
   H ( 10)  4.167722  2.989476  4.162389
   H ( 11)  2.989476  4.167722  4.162389  2.903952
   H ( 12)  4.162389  4.162389  2.974177  2.904178  2.904178

 Applying Cartesian multipole field
    Component          Value
    ---------          -----
     (2,0,0)        1.00000E-11
     (0,2,0)        2.00000E-10
     (0,0,2)       -3.00000E-10
 Nucleus-field energy     =-2.0727687756e-08 hartrees
 Requested basis set is cc-pVDZ
 There are 54 shells and 114 basis functions
 A cutoff of  1.0D-12 yielded   1485 shell pairs
 There are      6669 function pairs (      7404 Cartesian)
 Smallest overlap matrix eigenvalue = 6.43E-04
 Guess MOs from SCF MO coefficient file

 -----------------------------------------------------------------------
  General SCF calculation program by
  Eric Jon Sundstrom, Paul Horn, Yuezhi Mao, Dmitri Zuev, Alec White,
  David Stuck, Shaama M.S., Shane Yost, Joonho Lee, David Small,
  Daniel Levine, Susi Lehtola, Hugh Burton, Evgeny Epifanovsky,
  Bang C. Huynh
 -----------------------------------------------------------------------
 Exchange:  PBE      Correlation:  PBE
 Using SG-1 standard quadrature grid
 Dispersion:   Grimme D3
 Discretize the solute cavity surface with Lebedev spheres
	Using 302 Lebedev grid points for each H atom
	Using 302 Lebedev grid points for other atoms
	Atomic van der Waals radii (Bondi set) will be scaled by 1.00
 Using smooth SwiG surface discretization
 Remove points where switching function is < 1.0e-08
 Keep 1672 surface tesserae and discard 1952 interior tesserae
 Molecular Surface Area = 97.785 Angst**2

 Discretize the solute cavity surface with Lebedev spheres
	Using 302 Lebedev grid points for each H atom
	Using 302 Lebedev grid points for other atoms
	Atomic van der Waals radii (Bondi set) will be scaled by 1.00
 Using smooth SwiG surface discretization
 Remove points where switching function is < 1.0e-08
 Keep 1672 surface tesserae and discard 1952 interior tesserae
 Molecular Surface Area = 97.785 Angst**2

 Discretize the solute cavity surface with Lebedev spheres
	Using 302 Lebedev grid points for each H atom
	Using 302 Lebedev grid points for other atoms
	Atomic van der Waals radii (Bondi set) will be scaled by 1.00
 Using smooth SwiG surface discretization
 Remove points where switching function is < 1.0e-08
 Keep 1672 surface tesserae and discard 1952 interior tesserae
 Molecular Surface Area = 97.785 Angst**2

******************** LIBDISTORT ********************
  Authors: Maximilian Scheurer, Tim Stauch, Felix Zeller
  Applying pressure using GOSTSHYP model.
  Please cite: 10.1021/acs.jctc.0c01212
  ------------------------------
    Pressure = 50000.00 MPa
    Pressure = 1.70e-03 au
   Tessellation Info: 
     Points (Hydrogen Atoms)            = 302
     Points (Heavy Atoms)               = 302
     Tessellation Sphere Scaling Factor = 1.00
****************************************************

 0 negative amplitudes detected
 A restricted SCF calculation will be
 performed using DIIS
 SCF converges when DIIS error is below 1.0e-08
 ---------------------------------------
  Cycle       Energy         DIIS error
 ---------------------------------------
 0 negative amplitudes detected
    1    -231.5030181878      5.36e-05  
 0 negative amplitudes detected
    2    -231.5030252732      1.17e-05  
 0 negative amplitudes detected
    3    -231.5030249478      1.82e-05  
 0 negative amplitudes detected
    4    -231.5030254718      2.01e-06  
 0 negative amplitudes detected
    5    -231.5030254796      2.23e-07  
 0 negative amplitudes detected
    6    -231.5030254796      5.21e-08  
 0 negative amplitudes detected
    7    -231.5030254797      2.69e-08  
    8    -231.5030254797      4.05e-09  Convergence criterion met
 ---------------------------------------
 SCF time:   CPU 19.29s  wall 5.00s 
 SCF   energy in the final basis set =     -231.5030254797
 Total energy in the final basis set =     -231.5030254797

 --------------------------------------------------------------

                    Orbital Energies (a.u.)
 --------------------------------------------------------------

 Alpha MOs
 -- Occupied --
 -9.8783  -9.8783  -9.8782  -9.8782  -9.8777  -9.8776  -0.8780  -0.6656
 -0.5638  -0.5635  -0.4685  -0.4463  -0.4461  -0.3786  -0.3675  -0.3387
 -0.3385  -0.2361  -0.2361  -0.1754  -0.1751
 -- Virtual --
  0.0699   0.0812   0.0988   0.1411   0.1412   0.1570   0.1623   0.1631
  0.1950   0.1954   0.2071   0.2417   0.2429   0.3349   0.3619   0.3624
  0.4163   0.4546   0.4833   0.4835   0.4907   0.4911   0.5415   0.5418
  0.5797   0.6108   0.6111   0.6321   0.6624   0.6634   0.6780   0.6846
  0.6864   0.6874   0.7183   0.7197   0.7245   0.7623   0.9807   0.9807
  1.0122   1.0146   1.0425   1.1286   1.1573   1.2155   1.2159   1.3410
  1.3432   1.3451   1.3988   1.4019   1.4212   1.4221   1.4594   1.4601
  1.4913   1.5891   1.5895   1.6113   1.6114   1.6357   1.6605   1.6639
  1.7297   1.7305   1.8079   1.8342   1.8366   1.8506   1.8529   1.8866
  1.9537   1.9607   1.9614   2.0113   2.0124   2.0276   2.0959   2.0975
  2.1203   2.2967   2.3071   2.3097   2.3388   2.4008   2.4027   2.4140
  2.6317   2.6340   2.6838   3.2781   3.2792
 --------------------------------------------------------------

          Ground-State Mulliken Net Atomic Charges

     Atom                 Charge (a.u.)
  ----------------------------------------
      1 C                    -0.027214
      2 C                    -0.027214
      3 C                    -0.026601
      4 C                    -0.027214
      5 C                    -0.027214
      6 C                    -0.026601
      7 H                     0.027136
      8 H                     0.027136
      9 H                     0.026757
     10 H                     0.027136
     11 H                     0.027136
     12 H                     0.026757
  ----------------------------------------
  Sum of atomic charges =     0.000000

 -----------------------------------------------------------------
                    Cartesian Multipole Moments
 -----------------------------------------------------------------
    Charge (ESU x 10^10)
                -0.0000
    Dipole Moment (Debye)
         X      -0.0137      Y       0.0000      Z      -0.0000
       Tot       0.0137
    Quadrupole Moments (Debye-Ang)
        XX     -34.1013     XY       0.0000     YY     -34.1009
        XZ      -0.0000     YZ      -0.0000     ZZ     -31.6835
    Octopole Moments (Debye-Ang^2)
       XXX      -4.6597    XXY      -0.0000    XYY       4.4070
       YYY       0.0000    XXZ       0.0000    XYZ      -0.0000
       YYZ       0.0000    XZZ      -0.0058    YZZ      -0.0000
       ZZZ       0.0000
    Hexadecapole Moments (Debye-Ang^3)
      XXXX    -135.2712   XXXY       0.0000   XXYY     -45.1540
      XYYY      -0.0000   YYYY    -135.4742   XXXZ      -0.0000
      XXYZ       0.0000   XYYZ      -0.0000   YYYZ      -0.0000
      XXZZ     -49.9907   XYZZ      -0.0000   YYZZ     -49.9051
      XZZZ      -0.0000   YZZZ       0.0000   ZZZZ    -187.4228
 -----------------------------------------------------------------
 Calculating analytic gradient of the SCF energy
 Call libqints based aoints job 111
 0 negative amplitudes detected
 Call libqints based aoints job 120
 Gradient of SCF Energy
            1           2           3           4           5           6
    1  -0.0000832  -0.0000832  -0.0010910  -0.0000832  -0.0000832  -0.0010910
    2   0.0007707  -0.0007707  -0.0000000  -0.0007707   0.0007707  -0.0000000
    3   0.0002664   0.0002664  -0.0001189  -0.0002664  -0.0002664   0.0001189
            7           8           9          10          11          12
    1   0.0003178   0.0003178   0.0006219   0.0003178   0.0003178   0.0006219
    2  -0.0003676   0.0003676  -0.0000000   0.0003676  -0.0003676   0.0000000
    3  -0.0006093  -0.0006093   0.0008586   0.0006093   0.0006093  -0.0008586
 Max gradient component =       1.091E-03
 RMS gradient           =       5.210E-04
 Gradient time:  CPU 63.08 s  wall 15.77 s

     Step 1	:
        Energy is -231.5030254797
                            Maximum         Tolerance       Converged?
         Gradient           1.73683194e-03	3.00000000e-04	false
         Displacement       1.26561796e-02	1.20000000e-03	false
         Energy change      5.41494846e-05	1.00000000e-06	false


	OPTIMIZATION CYCLE:	2

 Scaling Magnitude of Eigenvalues
 	Minimum: -25.00000000	 Maximum: 25.00000000
 30 Hessian Eigenvalues to form next step
   0.04839457   0.10317222   0.10580764   0.10580767   0.10641015
   0.10697624   0.10894292   0.11204171   0.12970246   0.12990813
   0.12990822   0.14210031   0.14445664   0.14594293   0.14594310
   0.23368699   0.23368755   0.28510789   0.31293771   0.31330175
   0.31659226   0.39997701   0.49995943   0.50000000   0.50000000
   0.50000000   0.50000000   0.50000000   0.50000000   0.51440987


 Minimum Search taking a RFO step
 Searching for Lambda that minimizes along all modes
	Value of Lambda  -0.00008759
	Norm of Stepsize  0.04182995
	RMS of Stepsize  0.00763707

	Performing Iterative Coordinate Back-Transformation

	  Starting from Previous Position

	  iter:	0	rms: 6.4141438628e-03	maxdev: 1.6924599937e-02
	  iter:	1	rms: 2.4759472219e-05	maxdev: 7.1092958578e-05
	  iter:	2	rms: 2.5926521531e-10	maxdev: 9.3233924157e-10	 Success!

	Finished Iterative Coordinate Back-Transformation
 Adding empirical dispersion correction 
 ----------------------------------------------------------------
 Doing -D3(BJ) with
 s6  =   1.00000e+00
 s8  =   7.87500e-01
 a1  =   4.28900e-01
 a2  =   4.44070e+00
 -D3 energy without 3body term =     -9.5960686211e-03 hartrees
 ----------------------------------------------------------------
             Standard Nuclear Orientation (Angstroms)
    I     Atom           X                Y                Z
 ----------------------------------------------------------------
    1      C       0.4400014864    -0.7573212136     0.7747133815
    2      C       0.4400014864     0.7573212136     0.7747133815
    3      C      -0.8694582219     0.0000000000     0.7697164556
    4      C       0.4400014864     0.7573212136    -0.7747133815
    5      C       0.4400014864    -0.7573212136    -0.7747133815
    6      C      -0.8694582219     0.0000000000    -0.7697164556
    7      H       0.8349718830    -1.4498270846     1.5009324149
    8      H       0.8349718830     1.4498270846     1.5009324149
    9      H      -1.6804685169     0.0000000000     1.4781249124
   10      H       0.8349718830     1.4498270846    -1.5009324149
   11      H       0.8349718830    -1.4498270846    -1.5009324149
   12      H      -1.6804685169     0.0000000000    -1.4781249124
 ----------------------------------------------------------------
 Nuclear Repulsion Energy =         221.41837292 hartrees
 There are       21 alpha and       21 beta electrons

                       Distance Matrix (Angstroms)
             C (  1)   C (  2)   C (  3)   C (  4)   C (  5)   C (  6)
   C (  2)  1.514642
   C (  3)  1.512695  1.512695
   C (  4)  2.166764  1.549427  2.161824
   C (  5)  1.549427  2.166764  2.161824  1.514642
   C (  6)  2.161824  2.161824  1.539433  1.512695  1.512695
   H (  7)  1.078406  2.356883  2.354094  3.194694  2.411251  3.187935
   H (  8)  2.356883  1.078406  2.354094  2.411251  3.194694  3.187935
   H (  9)  2.358965  2.358965  1.076838  3.185154  3.185154  2.389671
   H ( 10)  3.194694  2.411251  3.187935  1.078406  2.356883  2.354094
   H ( 11)  2.411251  3.194694  3.187935  2.356883  1.078406  2.354094
   H ( 12)  3.185154  3.185154  2.389671  2.358965  2.358965  1.076838
             H (  7)   H (  8)   H (  9)   H ( 10)   H ( 11)
   H (  8)  2.899654
   H (  9)  2.903439  2.903439
   H ( 10)  4.173630  3.001865  4.159834
   H ( 11)  3.001865  4.173630  4.159834  2.899654
   H ( 12)  4.159834  4.159834  2.956250  2.903439  2.903439

 Applying Cartesian multipole field
    Component          Value
    ---------          -----
     (2,0,0)        1.00000E-11
     (0,2,0)        2.00000E-10
     (0,0,2)       -3.00000E-10
 Nucleus-field energy     =-2.0756190175e-08 hartrees
 Requested basis set is cc-pVDZ
 There are 54 shells and 114 basis functions
 A cutoff of  1.0D-12 yielded   1485 shell pairs
 There are      6669 function pairs (      7404 Cartesian)
 Smallest overlap matrix eigenvalue = 6.42E-04
 Guess MOs from SCF MO coefficient file

 -----------------------------------------------------------------------
  General SCF calculation program by
  Eric Jon Sundstrom, Paul Horn, Yuezhi Mao, Dmitri Zuev, Alec White,
  David Stuck, Shaama M.S., Shane Yost, Joonho Lee, David Small,
  Daniel Levine, Susi Lehtola, Hugh Burton, Evgeny Epifanovsky,
  Bang C. Huynh
 -----------------------------------------------------------------------
 Exchange:  PBE      Correlation:  PBE
 Using SG-1 standard quadrature grid
 Dispersion:   Grimme D3
 Discretize the solute cavity surface with Lebedev spheres
	Using 302 Lebedev grid points for each H atom
	Using 302 Lebedev grid points for other atoms
	Atomic van der Waals radii (Bondi set) will be scaled by 1.00
 Using smooth SwiG surface discretization
 Remove points where switching function is < 1.0e-08
 Keep 1668 surface tesserae and discard 1956 interior tesserae
 Molecular Surface Area = 97.754 Angst**2

 Discretize the solute cavity surface with Lebedev spheres
	Using 302 Lebedev grid points for each H atom
	Using 302 Lebedev grid points for other atoms
	Atomic van der Waals radii (Bondi set) will be scaled by 1.00
 Using smooth SwiG surface discretization
 Remove points where switching function is < 1.0e-08
 Keep 1668 surface tesserae and discard 1956 interior tesserae
 Molecular Surface Area = 97.754 Angst**2

 Discretize the solute cavity surface with Lebedev spheres
	Using 302 Lebedev grid points for each H atom
	Using 302 Lebedev grid points for other atoms
	Atomic van der Waals radii (Bondi set) will be scaled by 1.00
 Using smooth SwiG surface discretization
 Remove points where switching function is < 1.0e-08
 Keep 1668 surface tesserae and discard 1956 interior tesserae
 Molecular Surface Area = 97.754 Angst**2

******************** LIBDISTORT ********************
  Authors: Maximilian Scheurer, Tim Stauch, Felix Zeller
  Applying pressure using GOSTSHYP model.
  Please cite: 10.1021/acs.jctc.0c01212
  ------------------------------
    Pressure = 50000.00 MPa
    Pressure = 1.70e-03 au
   Tessellation Info: 
     Points (Hydrogen Atoms)            = 302
     Points (Heavy Atoms)               = 302
     Tessellation Sphere Scaling Factor = 1.00
****************************************************

 0 negative amplitudes detected
 A restricted SCF calculation will be
 performed using DIIS
 SCF converges when DIIS error is below 1.0e-08
 ---------------------------------------
  Cycle       Energy         DIIS error
 ---------------------------------------
 0 negative amplitudes detected
    1    -231.5030462922      1.03e-04  
 0 negative amplitudes detected
    2    -231.5030730510      1.59e-05  
 0 negative amplitudes detected
    3    -231.5030726250      2.26e-05  
 0 negative amplitudes detected
    4    -231.5030733954      4.38e-06  
 0 negative amplitudes detected
    5    -231.5030734317      3.63e-07  
 0 negative amplitudes detected
    6    -231.5030734320      8.25e-08  
 0 negative amplitudes detected
    7    -231.5030734320      3.84e-08  
    8    -231.5030734320      9.40e-09  Convergence criterion met
 ---------------------------------------
 SCF time:   CPU 19.17s  wall 5.00s 
 SCF   energy in the final basis set =     -231.5030734320
 Total energy in the final basis set =     -231.5030734320

 --------------------------------------------------------------

                    Orbital Energies (a.u.)
 --------------------------------------------------------------

 Alpha MOs
 -- Occupied --
 -9.8786  -9.8786  -9.8785  -9.8785  -9.8771  -9.8770  -0.8781  -0.6657
 -0.5640  -0.5633  -0.4685  -0.4465  -0.4458  -0.3786  -0.3675  -0.3389
 -0.3383  -0.2364  -0.2361  -0.1757  -0.1747
 -- Virtual --
  0.0699   0.0811   0.0988   0.1412   0.1414   0.1569   0.1617   0.1636
  0.1946   0.1956   0.2071   0.2407   0.2438   0.3349   0.3616   0.3627
  0.4164   0.4547   0.4831   0.4837   0.4906   0.4915   0.5415   0.5421
  0.5797   0.6107   0.6112   0.6321   0.6617   0.6642   0.6780   0.6847
  0.6856   0.6880   0.7169   0.7209   0.7245   0.7621   0.9807   0.9816
  1.0103   1.0156   1.0431   1.1284   1.1569   1.2152   1.2165   1.3404
  1.3412   1.3465   1.3953   1.4046   1.4212   1.4235   1.4592   1.4606
  1.4919   1.5881   1.5903   1.6114   1.6116   1.6351   1.6604   1.6644
  1.7283   1.7308   1.8084   1.8321   1.8391   1.8479   1.8546   1.8861
  1.9536   1.9603   1.9620   2.0109   2.0130   2.0280   2.0952   2.0986
  2.1199   2.2968   2.3043   2.3112   2.3392   2.3981   2.4049   2.4167
  2.6291   2.6358   2.6841   3.2779   3.2795
 --------------------------------------------------------------

          Ground-State Mulliken Net Atomic Charges

     Atom                 Charge (a.u.)
  ----------------------------------------
      1 C                    -0.027208
      2 C                    -0.027208
      3 C                    -0.026661
      4 C                    -0.027208
      5 C                    -0.027208
      6 C                    -0.026661
      7 H                     0.027450
      8 H                     0.027450
      9 H                     0.026178
     10 H                     0.027450
     11 H                     0.027450
     12 H                     0.026178
  ----------------------------------------
  Sum of atomic charges =     0.000000

 -----------------------------------------------------------------
                    Cartesian Multipole Moments
 -----------------------------------------------------------------
    Charge (ESU x 10^10)
                -0.0000
    Dipole Moment (Debye)
         X      -0.0290      Y       0.0000      Z       0.0000
       Tot       0.0290
    Quadrupole Moments (Debye-Ang)
        XX     -34.1076     XY      -0.0000     YY     -34.1144
        XZ      -0.0000     YZ      -0.0000     ZZ     -31.6657
    Octopole Moments (Debye-Ang^2)
       XXX      -4.9710    XXY       0.0000    XYY       4.2862
       YYY       0.0000    XXZ       0.0000    XYZ      -0.0000
       YYZ      -0.0000    XZZ       0.0182    YZZ       0.0000
       ZZZ      -0.0000
    Hexadecapole Moments (Debye-Ang^3)
      XXXX    -135.1119   XXXY       0.0000   XXYY     -45.1971
      XYYY       0.0000   YYYY    -135.5720   XXXZ       0.0000
      XXYZ      -0.0000   XYYZ       0.0000   YYYZ      -0.0000
      XXZZ     -50.0904   XYZZ       0.0000   YYZZ     -49.8080
      XZZZ       0.0000   YZZZ      -0.0000   ZZZZ    -187.3872
 -----------------------------------------------------------------
 Calculating analytic gradient of the SCF energy
 Call libqints based aoints job 111
 0 negative amplitudes detected
 Call libqints based aoints job 120
 Gradient of SCF Energy
            1           2           3           4           5           6
    1   0.0003649   0.0003649  -0.0008856   0.0003649   0.0003649  -0.0008856
    2   0.0005334  -0.0005334   0.0000000  -0.0005334   0.0005334   0.0000000
    3   0.0004639   0.0004639  -0.0013283  -0.0004639  -0.0004639   0.0013283
            7           8           9          10          11          12
    1  -0.0002669  -0.0002669   0.0006896  -0.0002669  -0.0002669   0.0006896
    2  -0.0002918   0.0002918   0.0000000   0.0002918  -0.0002918  -0.0000000
    3   0.0000092   0.0000092   0.0003047  -0.0000092  -0.0000092  -0.0003047
 Max gradient component =       1.328E-03
 RMS gradient           =       5.107E-04
 Gradient time:  CPU 62.66 s  wall 15.67 s

     Step 2	:
        Energy is -231.5030734320
                            Maximum         Tolerance       Converged?
         Gradient           8.56826729e-04	3.00000000e-04	false
         Displacement       2.67447734e-02	1.20000000e-03	false
         Energy change      4.79523641e-05	1.00000000e-06	false


	OPTIMIZATION CYCLE:	3

 Scaling Magnitude of Eigenvalues
 	Minimum: -25.00000000	 Maximum: 25.00000000
 30 Hessian Eigenvalues to form next step
   0.03828688   0.10317222   0.10580764   0.10580767   0.10641015
   0.10697624   0.10894292   0.11465350   0.12970246   0.12990813
   0.12990822   0.14210031   0.14594293   0.14594310   0.14825054
   0.23368699   0.23368755   0.30925919   0.31293771   0.31348350
   0.31659226   0.39997701   0.49996566   0.50000000   0.50000000
   0.50000000   0.50000000   0.50000000   0.50004026   0.52091004


 Minimum Search taking a RFO step
 Searching for Lambda that minimizes along all modes
	Value of Lambda  -0.00000884
	Norm of Stepsize  0.01140547
	RMS of Stepsize  0.00208234

	Performing Iterative Coordinate Back-Transformation

	  Starting from Previous Position

	  iter:	0	rms: 1.2776961881e-03	maxdev: 3.6059205870e-03
	  iter:	1	rms: 1.5446424020e-06	maxdev: 5.5584464675e-06
	  iter:	2	rms: 2.0413316674e-12	maxdev: 7.9690163191e-12	 Success!

	Finished Iterative Coordinate Back-Transformation
 Adding empirical dispersion correction 
 ----------------------------------------------------------------
 Doing -D3(BJ) with
 s6  =   1.00000e+00
 s8  =   7.87500e-01
 a1  =   4.28900e-01
 a2  =   4.44070e+00
 -D3 energy without 3body term =     -9.5959223451e-03 hartrees
 ----------------------------------------------------------------
             Standard Nuclear Orientation (Angstroms)
    I     Atom           X                Y                Z
 ----------------------------------------------------------------
    1      C       0.4402928769    -0.7574206087     0.7747433406
    2      C       0.4402928769     0.7574206087     0.7747433406
    3      C      -0.8690318634     0.0000000000     0.7696885167
    4      C       0.4402928769     0.7574206087    -0.7747433406
    5      C       0.4402928769    -0.7574206087    -0.7747433406
    6      C      -0.8690318634     0.0000000000    -0.7696885167
    7      H       0.8352254682    -1.4491768346     1.5016142776
    8      H       0.8352254682     1.4491768346     1.5016142776
    9      H      -1.6819848267     0.0000000000     1.4762158262
   10      H       0.8352254682     1.4491768346    -1.5016142776
   11      H       0.8352254682    -1.4491768346    -1.5016142776
   12      H      -1.6819848267     0.0000000000    -1.4762158262
 ----------------------------------------------------------------
 Nuclear Repulsion Energy =         221.41450074 hartrees
 There are       21 alpha and       21 beta electrons

                       Distance Matrix (Angstroms)
             C (  1)   C (  2)   C (  3)   C (  4)   C (  5)   C (  6)
   C (  2)  1.514841
   C (  3)  1.512628  1.512628
   C (  4)  2.166946  1.549487  2.161779
   C (  5)  1.549487  2.166946  2.161779  1.514841
   C (  6)  2.161779  2.161779  1.539377  1.512628  1.512628
   H (  7)  1.078350  2.356562  2.353789  3.194816  2.411701  3.188012
   H (  8)  2.356562  1.078350  2.353789  2.411701  3.194816  3.188012
   H (  9)  2.360045  2.360045  1.077067  3.185054  3.185054  2.388510
   H ( 10)  3.194816  2.411701  3.188012  1.078350  2.356562  2.353789
   H ( 11)  2.411701  3.194816  3.188012  2.356562  1.078350  2.353789
   H ( 12)  3.185054  3.185054  2.388510  2.360045  2.360045  1.077067
             H (  7)   H (  8)   H (  9)   H ( 10)   H ( 11)
   H (  8)  2.898354
   H (  9)  2.904670  2.904670
   H ( 10)  4.173708  3.003229  4.159800
   H ( 11)  3.003229  4.173708  4.159800  2.898354
   H ( 12)  4.159800  4.159800  2.952432  2.904670  2.904670

 Applying Cartesian multipole field
    Component          Value
    ---------          -----
     (2,0,0)        1.00000E-11
     (0,2,0)        2.00000E-10
     (0,0,2)       -3.00000E-10
 Nucleus-field energy     =-2.0755997279e-08 hartrees
 Requested basis set is cc-pVDZ
 There are 54 shells and 114 basis functions
 A cutoff of  1.0D-12 yielded   1485 shell pairs
 There are      6669 function pairs (      7404 Cartesian)
 Smallest overlap matrix eigenvalue = 6.42E-04
 Guess MOs from SCF MO coefficient file

 -----------------------------------------------------------------------
  General SCF calculation program by
  Eric Jon Sundstrom, Paul Horn, Yuezhi Mao, Dmitri Zuev, Alec White,
  David Stuck, Shaama M.S., Shane Yost, Joonho Lee, David Small,
  Daniel Levine, Susi Lehtola, Hugh Burton, Evgeny Epifanovsky,
  Bang C. Huynh
 -----------------------------------------------------------------------
 Exchange:  PBE      Correlation:  PBE
 Using SG-1 standard quadrature grid
 Dispersion:   Grimme D3
 Discretize the solute cavity surface with Lebedev spheres
	Using 302 Lebedev grid points for each H atom
	Using 302 Lebedev grid points for other atoms
	Atomic van der Waals radii (Bondi set) will be scaled by 1.00
 Using smooth SwiG surface discretization
 Remove points where switching function is < 1.0e-08
 Keep 1664 surface tesserae and discard 1960 interior tesserae
 Molecular Surface Area = 97.747 Angst**2

 Discretize the solute cavity surface with Lebedev spheres
	Using 302 Lebedev grid points for each H atom
	Using 302 Lebedev grid points for other atoms
	Atomic van der Waals radii (Bondi set) will be scaled by 1.00
 Using smooth SwiG surface discretization
 Remove points where switching function is < 1.0e-08
 Keep 1664 surface tesserae and discard 1960 interior tesserae
 Molecular Surface Area = 97.747 Angst**2

 Discretize the solute cavity surface with Lebedev spheres
	Using 302 Lebedev grid points for each H atom
	Using 302 Lebedev grid points for other atoms
	Atomic van der Waals radii (Bondi set) will be scaled by 1.00
 Using smooth SwiG surface discretization
 Remove points where switching function is < 1.0e-08
 Keep 1664 surface tesserae and discard 1960 interior tesserae
 Molecular Surface Area = 97.747 Angst**2

******************** LIBDISTORT ********************
  Authors: Maximilian Scheurer, Tim Stauch, Felix Zeller
  Applying pressure using GOSTSHYP model.
  Please cite: 10.1021/acs.jctc.0c01212
  ------------------------------
    Pressure = 50000.00 MPa
    Pressure = 1.70e-03 au
   Tessellation Info: 
     Points (Hydrogen Atoms)            = 302
     Points (Heavy Atoms)               = 302
     Tessellation Sphere Scaling Factor = 1.00
****************************************************

 0 negative amplitudes detected
 A restricted SCF calculation will be
 performed using DIIS
 SCF converges when DIIS error is below 1.0e-08
 ---------------------------------------
  Cycle       Energy         DIIS error
 ---------------------------------------
 0 negative amplitudes detected
    1    -231.5030802021      1.93e-05  
 0 negative amplitudes detected
    2    -231.5030811203      2.62e-06  
 0 negative amplitudes detected
    3    -231.5030810939      4.78e-06  
 0 negative amplitudes detected
    4    -231.5030811332      3.81e-07  
 0 negative amplitudes detected
    5    -231.5030811334      9.61e-08  
 0 negative amplitudes detected
    6    -231.5030811334      4.72e-08  
    7    -231.5030811334      5.69e-09  Convergence criterion met
 ---------------------------------------
 SCF time:   CPU 18.13s  wall 5.00s 
 SCF   energy in the final basis set =     -231.5030811334
 Total energy in the final basis set =     -231.5030811334

 --------------------------------------------------------------

                    Orbital Energies (a.u.)
 --------------------------------------------------------------

 Alpha MOs
 -- Occupied --
 -9.8787  -9.8787  -9.8786  -9.8786  -9.8770  -9.8770  -0.8781  -0.6656
 -0.5640  -0.5633  -0.4685  -0.4466  -0.4458  -0.3786  -0.3675  -0.3390
 -0.3382  -0.2364  -0.2360  -0.1757  -0.1748
 -- Virtual --
  0.0699   0.0811   0.0987   0.1411   0.1414   0.1569   0.1617   0.1636
  0.1945   0.1957   0.2071   0.2406   0.2439   0.3349   0.3616   0.3627
  0.4163   0.4547   0.4830   0.4837   0.4906   0.4914   0.5416   0.5420
  0.5797   0.6107   0.6112   0.6321   0.6616   0.6642   0.6780   0.6847
  0.6856   0.6880   0.7169   0.7209   0.7245   0.7621   0.9804   0.9818
  1.0102   1.0154   1.0435   1.1284   1.1570   1.2150   1.2165   1.3403
  1.3412   1.3465   1.3949   1.4052   1.4211   1.4232   1.4590   1.4607
  1.4918   1.5880   1.5904   1.6112   1.6117   1.6352   1.6604   1.6643
  1.7282   1.7310   1.8083   1.8316   1.8394   1.8476   1.8550   1.8862
  1.9536   1.9603   1.9619   2.0110   2.0128   2.0280   2.0952   2.0982
  2.1199   2.2968   2.3040   2.3111   2.3391   2.3979   2.4049   2.4169
  2.6285   2.6363   2.6840   3.2778   3.2792
 --------------------------------------------------------------

          Ground-State Mulliken Net Atomic Charges

     Atom                 Charge (a.u.)
  ----------------------------------------
      1 C                    -0.027031
      2 C                    -0.027031
      3 C                    -0.027063
      4 C                    -0.027031
      5 C                    -0.027031
      6 C                    -0.027063
      7 H                     0.027453
      8 H                     0.027453
      9 H                     0.026220
     10 H                     0.027453
     11 H                     0.027453
     12 H                     0.026220
  ----------------------------------------
  Sum of atomic charges =     0.000000

 -----------------------------------------------------------------
                    Cartesian Multipole Moments
 -----------------------------------------------------------------
    Charge (ESU x 10^10)
                -0.0000
    Dipole Moment (Debye)
         X      -0.0301      Y      -0.0000      Z      -0.0000
       Tot       0.0301
    Quadrupole Moments (Debye-Ang)
        XX     -34.0993     XY      -0.0000     YY     -34.1202
        XZ       0.0000     YZ      -0.0000     ZZ     -31.6692
    Octopole Moments (Debye-Ang^2)
       XXX      -5.0217    XXY      -0.0000    XYY       4.2724
       YYY      -0.0000    XXZ      -0.0000    XYZ      -0.0000
       YYZ      -0.0000    XZZ       0.0299    YZZ      -0.0000
       ZZZ      -0.0000
    Hexadecapole Moments (Debye-Ang^3)
      XXXX    -135.0881   XXXY      -0.0000   XXYY     -45.2045
      XYYY      -0.0000   YYYY    -135.5926   XXXZ       0.0000
      XXYZ      -0.0000   XYYZ       0.0000   YYYZ      -0.0000
      XXZZ     -50.0991   XYZZ      -0.0000   YYZZ     -49.8046
      XZZZ       0.0000   YZZZ      -0.0000   ZZZZ    -187.3980
 -----------------------------------------------------------------
 Calculating analytic gradient of the SCF energy
 Call libqints based aoints job 111
 0 negative amplitudes detected
 Call libqints based aoints job 120
 Gradient of SCF Energy
            1           2           3           4           5           6
    1   0.0004054   0.0004054  -0.0006929   0.0004054   0.0004054  -0.0006929
    2   0.0004264  -0.0004264   0.0000000  -0.0004264   0.0004264   0.0000000
    3   0.0004236   0.0004236  -0.0012732  -0.0004236  -0.0004236   0.0012732
            7           8           9          10          11          12
    1  -0.0003026  -0.0003026   0.0004874  -0.0003026  -0.0003026   0.0004874
    2  -0.0002103   0.0002103   0.0000000   0.0002103  -0.0002103   0.0000000
    3   0.0000425   0.0000425   0.0002848  -0.0000425  -0.0000425  -0.0002848
 Max gradient component =       1.273E-03
 RMS gradient           =       4.562E-04
 Gradient time:  CPU 62.50 s  wall 15.63 s

     Step 3	:
        Energy is -231.5030811334
                            Maximum         Tolerance       Converged?
         Gradient           7.58938701e-04	3.00000000e-04	false
         Displacement       9.57333832e-03	1.20000000e-03	false
         Energy change      7.70142952e-06	1.00000000e-06	false


	OPTIMIZATION CYCLE:	4

 Scaling Magnitude of Eigenvalues
 	Minimum: -25.00000000	 Maximum: 25.00000000
 30 Hessian Eigenvalues to form next step
   0.01618612   0.09123581   0.10317222   0.10580764   0.10580767
   0.10641015   0.10697624   0.10894292   0.12970246   0.12990813
   0.12990822   0.13297014   0.14210031   0.14594293   0.14594310
   0.23368699   0.23368755   0.26694481   0.31293771   0.31512454
   0.31659226   0.39997701   0.49988500   0.49996785   0.50000000
   0.50000000   0.50000000   0.50000000   0.50001549   0.51530410


 Minimum Search taking a RFO step
 Searching for Lambda that minimizes along all modes
	Value of Lambda  -0.00002853
	Norm of Stepsize  0.03897532
	RMS of Stepsize  0.00711589

	Performing Iterative Coordinate Back-Transformation

	  Starting from Previous Position

	  iter:	0	rms: 3.8349370216e-03	maxdev: 1.0265022094e-02
	  iter:	1	rms: 1.6219768397e-05	maxdev: 6.0028423342e-05
	  iter:	2	rms: 2.6533391397e-10	maxdev: 1.0779160217e-09	 Success!

	Finished Iterative Coordinate Back-Transformation
 Adding empirical dispersion correction 
 ----------------------------------------------------------------
 Doing -D3(BJ) with
 s6  =   1.00000e+00
 s8  =   7.87500e-01
 a1  =   4.28900e-01
 a2  =   4.44070e+00
 -D3 energy without 3body term =     -9.5954313655e-03 hartrees
 ----------------------------------------------------------------
             Standard Nuclear Orientation (Angstroms)
    I     Atom           X                Y                Z
 ----------------------------------------------------------------
    1      C       0.4406307193    -0.7577660252     0.7745022381
    2      C       0.4406307193     0.7577660252     0.7745022381
    3      C      -0.8682000904    -0.0000000000     0.7702982698
    4      C       0.4406307193     0.7577660252    -0.7745022381
    5      C       0.4406307193    -0.7577660252    -0.7745022381
    6      C      -0.8682000904    -0.0000000000    -0.7702982698
    7      H       0.8370964767    -1.4473321989     1.5023927600
    8      H       0.8370964767     1.4473321989     1.5023927600
    9      H      -1.6872343015    -0.0000000000     1.4707788819
   10      H       0.8370964767     1.4473321989    -1.5023927600
   11      H       0.8370964767    -1.4473321989    -1.5023927600
   12      H      -1.6872343015    -0.0000000000    -1.4707788819
 ----------------------------------------------------------------
 Nuclear Repulsion Energy =         221.40152353 hartrees
 There are       21 alpha and       21 beta electrons

                       Distance Matrix (Angstroms)
             C (  1)   C (  2)   C (  3)   C (  4)   C (  5)   C (  6)
   C (  2)  1.515532
   C (  3)  1.512371  1.512371
   C (  4)  2.167084  1.549004  2.161864
   C (  5)  1.549004  2.167084  2.161864  1.515532
   C (  6)  2.161864  2.161864  1.540597  1.512371  1.512371
   H (  7)  1.078198  2.355731  2.353459  3.194353  2.411833  3.188719
   H (  8)  2.355731  1.078198  2.353459  2.411833  3.194353  3.188719
   H (  9)  2.363646  2.363646  1.077725  3.184856  3.184856  2.386052
   H ( 10)  3.194353  2.411833  3.188719  1.078198  2.355731  2.353459
   H ( 11)  2.411833  3.194353  3.188719  2.355731  1.078198  2.353459
   H ( 12)  3.184856  3.184856  2.386052  2.363646  2.363646  1.077725
             H (  7)   H (  8)   H (  9)   H ( 10)   H ( 11)
   H (  8)  2.894664
   H (  9)  2.909986  2.909986
   H ( 10)  4.172268  3.004786  4.160140
   H ( 11)  3.004786  4.172268  4.160140  2.894664
   H ( 12)  4.160140  4.160140  2.941558  2.909986  2.909986

 Applying Cartesian multipole field
    Component          Value
    ---------          -----
     (2,0,0)        1.00000E-11
     (0,2,0)        2.00000E-10
     (0,0,2)       -3.00000E-10
 Nucleus-field energy     =-2.0739102731e-08 hartrees
 Requested basis set is cc-pVDZ
 There are 54 shells and 114 basis functions
 A cutoff of  1.0D-12 yielded   1485 shell pairs
 There are      6669 function pairs (      7404 Cartesian)
 Smallest overlap matrix eigenvalue = 6.41E-04
 Guess MOs from SCF MO coefficient file

 -----------------------------------------------------------------------
  General SCF calculation program by
  Eric Jon Sundstrom, Paul Horn, Yuezhi Mao, Dmitri Zuev, Alec White,
  David Stuck, Shaama M.S., Shane Yost, Joonho Lee, David Small,
  Daniel Levine, Susi Lehtola, Hugh Burton, Evgeny Epifanovsky,
  Bang C. Huynh
 -----------------------------------------------------------------------
 Exchange:  PBE      Correlation:  PBE
 Using SG-1 standard quadrature grid
 Dispersion:   Grimme D3
 Discretize the solute cavity surface with Lebedev spheres
	Using 302 Lebedev grid points for each H atom
	Using 302 Lebedev grid points for other atoms
	Atomic van der Waals radii (Bondi set) will be scaled by 1.00
 Using smooth SwiG surface discretization
 Remove points where switching function is < 1.0e-08
 Keep 1668 surface tesserae and discard 1956 interior tesserae
 Molecular Surface Area = 97.725 Angst**2

 Discretize the solute cavity surface with Lebedev spheres
	Using 302 Lebedev grid points for each H atom
	Using 302 Lebedev grid points for other atoms
	Atomic van der Waals radii (Bondi set) will be scaled by 1.00
 Using smooth SwiG surface discretization
 Remove points where switching function is < 1.0e-08
 Keep 1668 surface tesserae and discard 1956 interior tesserae
 Molecular Surface Area = 97.725 Angst**2

 Discretize the solute cavity surface with Lebedev spheres
	Using 302 Lebedev grid points for each H atom
	Using 302 Lebedev grid points for other atoms
	Atomic van der Waals radii (Bondi set) will be scaled by 1.00
 Using smooth SwiG surface discretization
 Remove points where switching function is < 1.0e-08
 Keep 1668 surface tesserae and discard 1956 interior tesserae
 Molecular Surface Area = 97.725 Angst**2

******************** LIBDISTORT ********************
  Authors: Maximilian Scheurer, Tim Stauch, Felix Zeller
  Applying pressure using GOSTSHYP model.
  Please cite: 10.1021/acs.jctc.0c01212
  ------------------------------
    Pressure = 50000.00 MPa
    Pressure = 1.70e-03 au
   Tessellation Info: 
     Points (Hydrogen Atoms)            = 302
     Points (Heavy Atoms)               = 302
     Tessellation Sphere Scaling Factor = 1.00
****************************************************

 0 negative amplitudes detected
 A restricted SCF calculation will be
 performed using DIIS
 SCF converges when DIIS error is below 1.0e-08
 ---------------------------------------
  Cycle       Energy         DIIS error
 ---------------------------------------
 0 negative amplitudes detected
    1    -231.5030871111      6.16e-05  
 0 negative amplitudes detected
    2    -231.5030964652      1.17e-05  
 0 negative amplitudes detected
    3    -231.5030959533      2.12e-05  
 0 negative amplitudes detected
    4    -231.5030967007      1.40e-06  
 0 negative amplitudes detected
    5    -231.5030967041      2.64e-07  
 0 negative amplitudes detected
    6    -231.5030967042      1.49e-07  
 0 negative amplitudes detected
    7    -231.5030967042      1.69e-08  
    8    -231.5030967042      1.69e-09  Convergence criterion met
 ---------------------------------------
 SCF time:   CPU 19.15s  wall 5.00s 
 SCF   energy in the final basis set =     -231.5030967042
 Total energy in the final basis set =     -231.5030967042

 --------------------------------------------------------------

                    Orbital Energies (a.u.)
 --------------------------------------------------------------

 Alpha MOs
 -- Occupied --
 -9.8787  -9.8787  -9.8786  -9.8786  -9.8770  -9.8770  -0.8780  -0.6656
 -0.5640  -0.5633  -0.4684  -0.4466  -0.4457  -0.3787  -0.3675  -0.3392
 -0.3379  -0.2366  -0.2355  -0.1755  -0.1750
 -- Virtual --
  0.0698   0.0811   0.0987   0.1405   0.1415   0.1569   0.1618   0.1635
  0.1942   0.1961   0.2070   0.2406   0.2438   0.3349   0.3615   0.3627
  0.4162   0.4548   0.4829   0.4836   0.4907   0.4912   0.5416   0.5417
  0.5796   0.6106   0.6112   0.6320   0.6615   0.6641   0.6779   0.6845
  0.6855   0.6882   0.7173   0.7206   0.7246   0.7624   0.9789   0.9822
  1.0105   1.0143   1.0447   1.1284   1.1574   1.2145   1.2167   1.3402
  1.3418   1.3462   1.3944   1.4071   1.4207   1.4217   1.4586   1.4610
  1.4914   1.5877   1.5903   1.6105   1.6118   1.6360   1.6602   1.6638
  1.7282   1.7320   1.8077   1.8302   1.8399   1.8472   1.8563   1.8867
  1.9534   1.9601   1.9615   2.0114   2.0120   2.0277   2.0953   2.0968
  2.1205   2.2968   2.3037   2.3105   2.3383   2.3978   2.4043   2.4167
  2.6269   2.6385   2.6836   3.2774   3.2787
 --------------------------------------------------------------

          Ground-State Mulliken Net Atomic Charges

     Atom                 Charge (a.u.)
  ----------------------------------------
      1 C                    -0.026432
      2 C                    -0.026432
      3 C                    -0.028351
      4 C                    -0.026432
      5 C                    -0.026432
      6 C                    -0.028351
      7 H                     0.027424
      8 H                     0.027424
      9 H                     0.026367
     10 H                     0.027424
     11 H                     0.027424
     12 H                     0.026367
  ----------------------------------------
  Sum of atomic charges =     0.000000

 -----------------------------------------------------------------
                    Cartesian Multipole Moments
 -----------------------------------------------------------------
    Charge (ESU x 10^10)
                -0.0000
    Dipole Moment (Debye)
         X      -0.0305      Y       0.0000      Z      -0.0000
       Tot       0.0305
    Quadrupole Moments (Debye-Ang)
        XX     -34.0619     XY       0.0000     YY     -34.1387
        XZ       0.0000     YZ      -0.0000     ZZ     -31.6912
    Octopole Moments (Debye-Ang^2)
       XXX      -5.1248    XXY      -0.0000    XYY       4.2574
       YYY      -0.0000    XXZ       0.0000    XYZ       0.0000
       YYZ       0.0000    XZZ       0.0753    YZZ       0.0000
       ZZZ      -0.0000
    Hexadecapole Moments (Debye-Ang^3)
      XXXX    -135.0103   XXXY      -0.0000   XXYY     -45.2152
      XYYY      -0.0000   YYYY    -135.6674   XXXZ      -0.0000
      XXYZ       0.0000   XYYZ      -0.0000   YYYZ       0.0000
      XXZZ     -50.1011   XYZZ       0.0000   YYZZ     -49.8223
      XZZZ      -0.0000   YZZZ       0.0000   ZZZZ    -187.4499
 -----------------------------------------------------------------
 Calculating analytic gradient of the SCF energy
 Call libqints based aoints job 111
 0 negative amplitudes detected
 Call libqints based aoints job 120
 Gradient of SCF Energy
            1           2           3           4           5           6
    1   0.0003059   0.0003059  -0.0000644   0.0003059   0.0003059  -0.0000644
    2   0.0000891  -0.0000891  -0.0000000  -0.0000891   0.0000891  -0.0000000
    3   0.0001083   0.0001083  -0.0003701  -0.0001083  -0.0001083   0.0003701
            7           8           9          10          11          12
    1  -0.0001963  -0.0001963  -0.0001549  -0.0001963  -0.0001963  -0.0001549
    2   0.0000298  -0.0000298  -0.0000000  -0.0000298   0.0000298   0.0000000
    3   0.0000406   0.0000406   0.0001146  -0.0000406  -0.0000406  -0.0001146
 Max gradient component =       3.701E-04
 RMS gradient           =       1.645E-04
 Gradient time:  CPU 62.80 s  wall 15.70 s

     Step 4	:
        Energy is -231.5030967042
                            Maximum         Tolerance       Converged?
         Gradient           3.75901593e-04	3.00000000e-04	false
         Displacement       3.43662084e-02	1.20000000e-03	false
         Energy change      1.55707533e-05	1.00000000e-06	false


	OPTIMIZATION CYCLE:	5

 Scaling Magnitude of Eigenvalues
 	Minimum: -25.00000000	 Maximum: 25.00000000
 30 Hessian Eigenvalues to form next step
   0.01645412   0.08369176   0.10317222   0.10580764   0.10580767
   0.10641015   0.10697624   0.10894292   0.12970246   0.12990813
   0.12990822   0.13201998   0.14210031   0.14594293   0.14594310
   0.23368699   0.23368755   0.26114292   0.31293771   0.31634223
   0.31659226   0.39997701   0.49994165   0.49996881   0.50000000
   0.50000000   0.50000000   0.50000000   0.50007534   0.52520042


 Minimum Search taking a RFO step
 Searching for Lambda that minimizes along all modes
	Value of Lambda  -0.00000204
	Norm of Stepsize  0.00502454
	RMS of Stepsize  0.00091735

	Performing Iterative Coordinate Back-Transformation

	  Starting from Previous Position

	  iter:	0	rms: 5.5658360311e-04	maxdev: 1.0531666500e-03
	  iter:	1	rms: 3.0070530426e-07	maxdev: 7.8168041159e-07	 Success!

	Finished Iterative Coordinate Back-Transformation
 Adding empirical dispersion correction 
 ----------------------------------------------------------------
 Doing -D3(BJ) with
 s6  =   1.00000e+00
 s8  =   7.87500e-01
 a1  =   4.28900e-01
 a2  =   4.44070e+00
 -D3 energy without 3body term =     -9.5954610941e-03 hartrees
 ----------------------------------------------------------------
             Standard Nuclear Orientation (Angstroms)
    I     Atom           X                Y                Z
 ----------------------------------------------------------------
    1      C       0.4403194458    -0.7578314608     0.7743506462
    2      C       0.4403194458     0.7578314608     0.7743506462
    3      C      -0.8683678692    -0.0000000000     0.7705959551
    4      C       0.4403194458     0.7578314608    -0.7743506462
    5      C       0.4403194458    -0.7578314608    -0.7743506462
    6      C      -0.8683678692    -0.0000000000    -0.7705959551
    7      H       0.8375999571    -1.4474152052     1.5018350346
    8      H       0.8375999571     1.4474152052     1.5018350346
    9      H      -1.6874509366     0.0000000000     1.4708644679
   10      H       0.8375999571     1.4474152052    -1.5018350346
   11      H       0.8375999571    -1.4474152052    -1.5018350346
   12      H      -1.6874509366    -0.0000000000    -1.4708644679
 ----------------------------------------------------------------
 Nuclear Repulsion Energy =         221.40292549 hartrees
 There are       21 alpha and       21 beta electrons

                       Distance Matrix (Angstroms)
             C (  1)   C (  2)   C (  3)   C (  4)   C (  5)   C (  6)
   C (  2)  1.515663
   C (  3)  1.512278  1.512278
   C (  4)  2.166959  1.548701  2.161904
   C (  5)  1.548701  2.166959  2.161904  1.515663
   C (  6)  2.161904  2.161904  1.541192  1.512278  1.512278
   H (  7)  1.078235  2.355882  2.353731  3.194052  2.411302  3.188931
   H (  8)  2.355882  1.078235  2.353731  2.411302  3.194052  3.188931
   H (  9)  2.363651  2.363651  1.077624  3.184762  3.184762  2.386429
   H ( 10)  3.194052  2.411302  3.188931  1.078235  2.355882  2.353731
   H ( 11)  2.411302  3.194052  3.188931  2.355882  1.078235  2.353731
   H ( 12)  3.184762  3.184762  2.386429  2.363651  2.363651  1.077624
             H (  7)   H (  8)   H (  9)   H ( 10)   H ( 11)
   H (  8)  2.894830
   H (  9)  2.910645  2.910645
   H ( 10)  4.171580  3.003670  4.160269
   H ( 11)  3.003670  4.171580  4.160269  2.894830
   H ( 12)  4.160269  4.160269  2.941729  2.910645  2.910645

 Applying Cartesian multipole field
    Component          Value
    ---------          -----
     (2,0,0)        1.00000E-11
     (0,2,0)        2.00000E-10
     (0,0,2)       -3.00000E-10
 Nucleus-field energy     =-2.0729873202e-08 hartrees
 Requested basis set is cc-pVDZ
 There are 54 shells and 114 basis functions
 A cutoff of  1.0D-12 yielded   1485 shell pairs
 There are      6669 function pairs (      7404 Cartesian)
 Smallest overlap matrix eigenvalue = 6.41E-04
 Guess MOs from SCF MO coefficient file

 -----------------------------------------------------------------------
  General SCF calculation program by
  Eric Jon Sundstrom, Paul Horn, Yuezhi Mao, Dmitri Zuev, Alec White,
  David Stuck, Shaama M.S., Shane Yost, Joonho Lee, David Small,
  Daniel Levine, Susi Lehtola, Hugh Burton, Evgeny Epifanovsky,
  Bang C. Huynh
 -----------------------------------------------------------------------
 Exchange:  PBE      Correlation:  PBE
 Using SG-1 standard quadrature grid
 Dispersion:   Grimme D3
 Discretize the solute cavity surface with Lebedev spheres
	Using 302 Lebedev grid points for each H atom
	Using 302 Lebedev grid points for other atoms
	Atomic van der Waals radii (Bondi set) will be scaled by 1.00
 Using smooth SwiG surface discretization
 Remove points where switching function is < 1.0e-08
 Keep 1668 surface tesserae and discard 1956 interior tesserae
 Molecular Surface Area = 97.723 Angst**2

 Discretize the solute cavity surface with Lebedev spheres
	Using 302 Lebedev grid points for each H atom
	Using 302 Lebedev grid points for other atoms
	Atomic van der Waals radii (Bondi set) will be scaled by 1.00
 Using smooth SwiG surface discretization
 Remove points where switching function is < 1.0e-08
 Keep 1668 surface tesserae and discard 1956 interior tesserae
 Molecular Surface Area = 97.723 Angst**2

 Discretize the solute cavity surface with Lebedev spheres
	Using 302 Lebedev grid points for each H atom
	Using 302 Lebedev grid points for other atoms
	Atomic van der Waals radii (Bondi set) will be scaled by 1.00
 Using smooth SwiG surface discretization
 Remove points where switching function is < 1.0e-08
 Keep 1668 surface tesserae and discard 1956 interior tesserae
 Molecular Surface Area = 97.723 Angst**2

******************** LIBDISTORT ********************
  Authors: Maximilian Scheurer, Tim Stauch, Felix Zeller
  Applying pressure using GOSTSHYP model.
  Please cite: 10.1021/acs.jctc.0c01212
  ------------------------------
    Pressure = 50000.00 MPa
    Pressure = 1.70e-03 au
   Tessellation Info: 
     Points (Hydrogen Atoms)            = 302
     Points (Heavy Atoms)               = 302
     Tessellation Sphere Scaling Factor = 1.00
****************************************************

 0 negative amplitudes detected
 A restricted SCF calculation will be
 performed using DIIS
 SCF converges when DIIS error is below 1.0e-08
 ---------------------------------------
  Cycle       Energy         DIIS error
 ---------------------------------------
 0 negative amplitudes detected
    1    -231.5030976744      1.19e-05  
 0 negative amplitudes detected
    2    -231.5030980585      1.81e-06  
 0 negative amplitudes detected
    3    -231.5030980583      1.87e-06  
 0 negative amplitudes detected
    4    -231.5030980630      7.43e-07  
 0 negative amplitudes detected
    5    -231.5030980639      8.13e-08  
 0 negative amplitudes detected
    6    -231.5030980639      2.78e-08  
    7    -231.5030980639      7.65e-09  Convergence criterion met
 ---------------------------------------
 SCF time:   CPU 18.53s  wall 5.00s 
 SCF   energy in the final basis set =     -231.5030980639
 Total energy in the final basis set =     -231.5030980639

 --------------------------------------------------------------

                    Orbital Energies (a.u.)
 --------------------------------------------------------------

 Alpha MOs
 -- Occupied --
 -9.8787  -9.8787  -9.8786  -9.8786  -9.8771  -9.8770  -0.8780  -0.6655
 -0.5640  -0.5634  -0.4684  -0.4465  -0.4457  -0.3787  -0.3676  -0.3392
 -0.3379  -0.2367  -0.2354  -0.1755  -0.1752
 -- Virtual --
  0.0698   0.0811   0.0987   0.1405   0.1415   0.1569   0.1619   0.1635
  0.1941   0.1962   0.2070   0.2407   0.2437   0.3349   0.3614   0.3627
  0.4162   0.4548   0.4830   0.4836   0.4907   0.4912   0.5416   0.5417
  0.5796   0.6105   0.6113   0.6320   0.6615   0.6641   0.6779   0.6845
  0.6856   0.6882   0.7176   0.7204   0.7247   0.7624   0.9787   0.9821
  1.0107   1.0141   1.0448   1.1285   1.1575   1.2145   1.2167   1.3403
  1.3422   1.3460   1.3946   1.4071   1.4206   1.4213   1.4586   1.4610
  1.4913   1.5878   1.5902   1.6104   1.6118   1.6362   1.6603   1.6637
  1.7283   1.7322   1.8076   1.8302   1.8397   1.8475   1.8563   1.8869
  1.9534   1.9601   1.9615   2.0114   2.0121   2.0277   2.0952   2.0967
  2.1206   2.2968   2.3039   2.3105   2.3382   2.3980   2.4041   2.4164
  2.6268   2.6390   2.6836   3.2771   3.2790
 --------------------------------------------------------------

          Ground-State Mulliken Net Atomic Charges

     Atom                 Charge (a.u.)
  ----------------------------------------
      1 C                    -0.026441
      2 C                    -0.026441
      3 C                    -0.028288
      4 C                    -0.026441
      5 C                    -0.026441
      6 C                    -0.028288
      7 H                     0.027422
      8 H                     0.027422
      9 H                     0.026325
     10 H                     0.027422
     11 H                     0.027422
     12 H                     0.026325
  ----------------------------------------
  Sum of atomic charges =     0.000000

 -----------------------------------------------------------------
                    Cartesian Multipole Moments
 -----------------------------------------------------------------
    Charge (ESU x 10^10)
                -0.0000
    Dipole Moment (Debye)
         X      -0.0293      Y       0.0000      Z      -0.0000
       Tot       0.0293
    Quadrupole Moments (Debye-Ang)
        XX     -34.0565     XY       0.0000     YY     -34.1387
        XZ       0.0000     YZ      -0.0000     ZZ     -31.6964
    Octopole Moments (Debye-Ang^2)
       XXX      -5.0999    XXY      -0.0000    XYY       4.2698
       YYY      -0.0000    XXZ       0.0000    XYZ      -0.0000
       YYZ       0.0000    XZZ       0.0806    YZZ       0.0000
       ZZZ      -0.0000
    Hexadecapole Moments (Debye-Ang^3)
      XXXX    -134.9955   XXXY      -0.0000   XXYY     -45.2078
      XYYY      -0.0000   YYYY    -135.6835   XXXZ      -0.0000
      XXYZ       0.0000   XYYZ      -0.0000   YYYZ       0.0000
      XXZZ     -50.0879   XYZZ       0.0000   YYZZ     -49.8353
      XZZZ      -0.0000   YZZZ       0.0000   ZZZZ    -187.4560
 -----------------------------------------------------------------
 Calculating analytic gradient of the SCF energy
 Call libqints based aoints job 111
 0 negative amplitudes detected
 Call libqints based aoints job 120
 Gradient of SCF Energy
            1           2           3           4           5           6
    1   0.0001550   0.0001550  -0.0000432   0.0001550   0.0001550  -0.0000432
    2   0.0000669  -0.0000669  -0.0000000  -0.0000669   0.0000669  -0.0000000
    3   0.0000091   0.0000091  -0.0000473  -0.0000091  -0.0000091   0.0000473
            7           8           9          10          11          12
    1  -0.0000819  -0.0000819  -0.0001031  -0.0000819  -0.0000819  -0.0001031
    2   0.0000122  -0.0000122  -0.0000000  -0.0000122   0.0000122   0.0000000
    3   0.0000071   0.0000071   0.0000504  -0.0000071  -0.0000071  -0.0000504
 Max gradient component =       1.550E-04
 RMS gradient           =       7.003E-05
 Gradient time:  CPU 63.27 s  wall 15.82 s

     Step 5	:
        Energy is -231.5030980639
                            Maximum         Tolerance       Converged?
         Gradient           1.65014450e-04	3.00000000e-04	true
         Displacement       2.94401515e-03	1.20000000e-03	false
         Energy change      1.35970978e-06	1.00000000e-06	false


	OPTIMIZATION CYCLE:	6

 Scaling Magnitude of Eigenvalues
 	Minimum: -25.00000000	 Maximum: 25.00000000
 30 Hessian Eigenvalues to form next step
   0.01671304   0.06033788   0.10317222   0.10580764   0.10580767
   0.10641015   0.10697624   0.10894292   0.12970246   0.12990813
   0.12990822   0.13351204   0.14210031   0.14594293   0.14594310
   0.23368699   0.23368755   0.26387639   0.30113075   0.31293771
   0.31659226   0.39997701   0.48892375   0.49995627   0.49999694
   0.50000000   0.50000000   0.50000000   0.50000000   0.50121004


 Minimum Search taking a RFO step
 Searching for Lambda that minimizes along all modes
	Value of Lambda  -0.00000048
	Norm of Stepsize  0.00248919
	RMS of Stepsize  0.00045446

	Performing Iterative Coordinate Back-Transformation

	  Starting from Previous Position

	  iter:	0	rms: 2.9966531380e-04	maxdev: 5.4920199159e-04
	  iter:	1	rms: 7.9632527613e-08	maxdev: 2.1884583022e-07	 Success!

	Finished Iterative Coordinate Back-Transformation
 Adding empirical dispersion correction 
 ----------------------------------------------------------------
 Doing -D3(BJ) with
 s6  =   1.00000e+00
 s8  =   7.87500e-01
 a1  =   4.28900e-01
 a2  =   4.44070e+00
 -D3 energy without 3body term =     -9.5955496554e-03 hartrees
 ----------------------------------------------------------------
             Standard Nuclear Orientation (Angstroms)
    I     Atom           X                Y                Z
 ----------------------------------------------------------------
    1      C       0.4400930636    -0.7578913410     0.7742884120
    2      C       0.4400930636     0.7578913410     0.7742884120
    3      C      -0.8684505237     0.0000000000     0.7706973960
    4      C       0.4400930636     0.7578913410    -0.7742884120
    5      C       0.4400930636    -0.7578913410    -0.7742884120
    6      C      -0.8684505237    -0.0000000000    -0.7706973960
    7      H       0.8377967178    -1.4475353801     1.5015442936
    8      H       0.8377967178     1.4475353801     1.5015442936
    9      H      -1.6873090390     0.0000000000     1.4710151022
   10      H       0.8377967178     1.4475353801    -1.5015442936
   11      H       0.8377967178    -1.4475353801    -1.5015442936
   12      H      -1.6873090390    -0.0000000000    -1.4710151022
 ----------------------------------------------------------------
 Nuclear Repulsion Energy =         221.40584193 hartrees
 There are       21 alpha and       21 beta electrons

                       Distance Matrix (Angstroms)
             C (  1)   C (  2)   C (  3)   C (  4)   C (  5)   C (  6)
   C (  2)  1.515783
   C (  3)  1.512183  1.512183
   C (  4)  2.166953  1.548577  2.161866
   C (  5)  1.548577  2.166953  2.161866  1.515783
   C (  6)  2.161866  2.161866  1.541395  1.512183  1.512183
   H (  7)  1.078276  2.356051  2.353885  3.193977  2.411056  3.189000
   H (  8)  2.356051  1.078276  2.353885  2.411056  3.193977  3.189000
   H (  9)  2.363402  2.363402  1.077485  3.184592  3.184592  2.386588
   H ( 10)  3.193977  2.411056  3.189000  1.078276  2.356051  2.353885
   H ( 11)  2.411056  3.193977  3.189000  2.356051  1.078276  2.353885
   H ( 12)  3.184592  3.184592  2.386588  2.363402  2.363402  1.077485
             H (  7)   H (  8)   H (  9)   H ( 10)   H ( 11)
   H (  8)  2.895071
   H (  9)  2.910747  2.910747
   H ( 10)  4.171328  3.003089  4.160244
   H ( 11)  3.003089  4.171328  4.160244  2.895071
   H ( 12)  4.160244  4.160244  2.942030  2.910747  2.910747

 Applying Cartesian multipole field
    Component          Value
    ---------          -----
     (2,0,0)        1.00000E-11
     (0,2,0)        2.00000E-10
     (0,0,2)       -3.00000E-10
 Nucleus-field energy     =-2.0724159506e-08 hartrees
 Requested basis set is cc-pVDZ
 There are 54 shells and 114 basis functions
 A cutoff of  1.0D-12 yielded   1485 shell pairs
 There are      6669 function pairs (      7404 Cartesian)
 Smallest overlap matrix eigenvalue = 6.41E-04
 Guess MOs from SCF MO coefficient file

 -----------------------------------------------------------------------
  General SCF calculation program by
  Eric Jon Sundstrom, Paul Horn, Yuezhi Mao, Dmitri Zuev, Alec White,
  David Stuck, Shaama M.S., Shane Yost, Joonho Lee, David Small,
  Daniel Levine, Susi Lehtola, Hugh Burton, Evgeny Epifanovsky,
  Bang C. Huynh
 -----------------------------------------------------------------------
 Exchange:  PBE      Correlation:  PBE
 Using SG-1 standard quadrature grid
 Dispersion:   Grimme D3
 Discretize the solute cavity surface with Lebedev spheres
	Using 302 Lebedev grid points for each H atom
	Using 302 Lebedev grid points for other atoms
	Atomic van der Waals radii (Bondi set) will be scaled by 1.00
 Using smooth SwiG surface discretization
 Remove points where switching function is < 1.0e-08
 Keep 1668 surface tesserae and discard 1956 interior tesserae
 Molecular Surface Area = 97.722 Angst**2

 Discretize the solute cavity surface with Lebedev spheres
	Using 302 Lebedev grid points for each H atom
	Using 302 Lebedev grid points for other atoms
	Atomic van der Waals radii (Bondi set) will be scaled by 1.00
 Using smooth SwiG surface discretization
 Remove points where switching function is < 1.0e-08
 Keep 1668 surface tesserae and discard 1956 interior tesserae
 Molecular Surface Area = 97.722 Angst**2

 Discretize the solute cavity surface with Lebedev spheres
	Using 302 Lebedev grid points for each H atom
	Using 302 Lebedev grid points for other atoms
	Atomic van der Waals radii (Bondi set) will be scaled by 1.00
 Using smooth SwiG surface discretization
 Remove points where switching function is < 1.0e-08
 Keep 1668 surface tesserae and discard 1956 interior tesserae
 Molecular Surface Area = 97.722 Angst**2

******************** LIBDISTORT ********************
  Authors: Maximilian Scheurer, Tim Stauch, Felix Zeller
  Applying pressure using GOSTSHYP model.
  Please cite: 10.1021/acs.jctc.0c01212
  ------------------------------
    Pressure = 50000.00 MPa
    Pressure = 1.70e-03 au
   Tessellation Info: 
     Points (Hydrogen Atoms)            = 302
     Points (Heavy Atoms)               = 302
     Tessellation Sphere Scaling Factor = 1.00
****************************************************

 0 negative amplitudes detected
 A restricted SCF calculation will be
 performed using DIIS
 SCF converges when DIIS error is below 1.0e-08
 ---------------------------------------
  Cycle       Energy         DIIS error
 ---------------------------------------
 0 negative amplitudes detected
    1    -231.5030982188      6.33e-06  
 0 negative amplitudes detected
    2    -231.5030983264      1.15e-06  
 0 negative amplitudes detected
    3    -231.5030983247      1.53e-06  
 0 negative amplitudes detected
    4    -231.5030983285      3.55e-07  
 0 negative amplitudes detected
    5    -231.5030983287      6.89e-08  
 0 negative amplitudes detected
    6    -231.5030983287      2.35e-08  
    7    -231.5030983287      3.50e-09  Convergence criterion met
 ---------------------------------------
 SCF time:   CPU 18.61s  wall 5.00s 
 SCF   energy in the final basis set =     -231.5030983287
 Total energy in the final basis set =     -231.5030983287

 --------------------------------------------------------------

                    Orbital Energies (a.u.)
 --------------------------------------------------------------

 Alpha MOs
 -- Occupied --
 -9.8787  -9.8787  -9.8786  -9.8785  -9.8771  -9.8771  -0.8780  -0.6655
 -0.5639  -0.5634  -0.4684  -0.4465  -0.4457  -0.3787  -0.3676  -0.3392
 -0.3379  -0.2367  -0.2354  -0.1754  -0.1752
 -- Virtual --
  0.0698   0.0812   0.0987   0.1405   0.1415   0.1569   0.1619   0.1635
  0.1941   0.1963   0.2070   0.2407   0.2437   0.3349   0.3614   0.3627
  0.4162   0.4548   0.4830   0.4835   0.4907   0.4912   0.5416   0.5417
  0.5796   0.6105   0.6113   0.6320   0.6615   0.6641   0.6779   0.6845
  0.6856   0.6882   0.7177   0.7203   0.7247   0.7624   0.9787   0.9821
  1.0108   1.0141   1.0448   1.1285   1.1575   1.2145   1.2167   1.3403
  1.3424   1.3459   1.3947   1.4071   1.4206   1.4212   1.4586   1.4610
  1.4912   1.5879   1.5900   1.6104   1.6118   1.6363   1.6603   1.6636
  1.7284   1.7323   1.8076   1.8303   1.8397   1.8477   1.8563   1.8870
  1.9535   1.9600   1.9616   2.0114   2.0122   2.0277   2.0951   2.0969
  2.1207   2.2969   2.3040   2.3106   2.3382   2.3981   2.4040   2.4163
  2.6267   2.6393   2.6837   3.2769   3.2794
 --------------------------------------------------------------

          Ground-State Mulliken Net Atomic Charges

     Atom                 Charge (a.u.)
  ----------------------------------------
      1 C                    -0.026497
      2 C                    -0.026497
      3 C                    -0.028129
      4 C                    -0.026497
      5 C                    -0.026497
      6 C                    -0.028129
      7 H                     0.027432
      8 H                     0.027432
      9 H                     0.026258
     10 H                     0.027432
     11 H                     0.027432
     12 H                     0.026258
  ----------------------------------------
  Sum of atomic charges =     0.000000

 -----------------------------------------------------------------
                    Cartesian Multipole Moments
 -----------------------------------------------------------------
    Charge (ESU x 10^10)
                -0.0000
    Dipole Moment (Debye)
         X      -0.0289      Y       0.0000      Z       0.0000
       Tot       0.0289
    Quadrupole Moments (Debye-Ang)
        XX     -34.0552     XY       0.0000     YY     -34.1379
        XZ      -0.0000     YZ       0.0000     ZZ     -31.6983
    Octopole Moments (Debye-Ang^2)
       XXX      -5.0818    XXY       0.0000    XYY       4.2771
       YYY       0.0000    XXZ       0.0000    XYZ      -0.0000
       YYZ      -0.0000    XZZ       0.0830    YZZ       0.0000
       ZZZ       0.0000
    Hexadecapole Moments (Debye-Ang^3)
      XXXX    -134.9804   XXXY      -0.0000   XXYY     -45.2017
      XYYY       0.0000   YYYY    -135.6978   XXXZ      -0.0000
      XXYZ      -0.0000   XYYZ      -0.0000   YYYZ      -0.0000
      XXZZ     -50.0799   XYZZ       0.0000   YYZZ     -49.8417
      XZZZ      -0.0000   YZZZ      -0.0000   ZZZZ    -187.4547
 -----------------------------------------------------------------
 Calculating analytic gradient of the SCF energy
 Call libqints based aoints job 111
 0 negative amplitudes detected
 Call libqints based aoints job 120
 Gradient of SCF Energy
            1           2           3           4           5           6
    1   0.0000407   0.0000407  -0.0000394   0.0000407   0.0000407  -0.0000394
    2   0.0000474  -0.0000474  -0.0000000  -0.0000474   0.0000474  -0.0000000
    3  -0.0000276  -0.0000276   0.0000774   0.0000276   0.0000276  -0.0000774
            7           8           9          10          11          12
    1  -0.0000141  -0.0000141  -0.0000137  -0.0000141  -0.0000141  -0.0000137
    2  -0.0000115   0.0000115  -0.0000000   0.0000115  -0.0000115   0.0000000
    3  -0.0000033  -0.0000033  -0.0000056   0.0000033   0.0000033   0.0000056
 Max gradient component =       7.738E-05
 RMS gradient           =       3.141E-05
 Gradient time:  CPU 63.33 s  wall 15.84 s

     Step 6	:
        Energy is -231.5030983287
                            Maximum         Tolerance       Converged?
         Gradient           6.52116383e-05	3.00000000e-04	true
         Displacement       1.47513299e-03	1.20000000e-03	false
         Energy change      2.64761923e-07	1.00000000e-06	true

	 Optimization Converged in 6 cycles

 *****************************************************
             End of BFGS Algorithm
 *****************************************************
		----------------------------------
		   Verification of Optimization
		----------------------------------

 Eigenvalues of Hessian in Optimization Verification
   0.01661818   0.05676215   0.10317222   0.10580764   0.10580767
   0.10641015   0.10697624   0.10894292   0.12970246   0.12990813
   0.12990822   0.13548165   0.14210031   0.14594293   0.14594310
   0.23368699   0.23368755   0.26633992   0.27791982   0.31293771
   0.31659226   0.39997701   0.49216144   0.49995787   0.49999874
   0.50000000   0.50000000   0.50000000   0.50000000   0.50455594


 Found a minimum
		---------------------------------
		       End of Verification
		---------------------------------

 Final energy is -231.503098328671

	******************************
	**  OPTIMIZATION CONVERGED  **
	******************************
 Adding empirical dispersion correction 
 ----------------------------------------------------------------
 Doing -D3(BJ) with
 s6  =   1.00000
 s8  =   0.78750
 a1  =   0.42890
 a2  =   4.44070
 -D3 energy without 3body term =     -0.0095955497 hartrees
 ----------------------------------------------------------------
             Standard Nuclear Orientation (Angstroms)
    I     Atom           X                Y                Z
 ----------------------------------------------------------------
    1      C       0.4400930636    -0.7578913410     0.7742884120
    2      C       0.4400930636     0.7578913410     0.7742884120
    3      C      -0.8684505237     0.0000000000     0.7706973960
    4      C       0.4400930636     0.7578913410    -0.7742884120
    5      C       0.4400930636    -0.7578913410    -0.7742884120
    6      C      -0.8684505237    -0.0000000000    -0.7706973960
    7      H       0.8377967178    -1.4475353801     1.5015442936
    8      H       0.8377967178     1.4475353801     1.5015442936
    9      H      -1.6873090390     0.0000000000     1.4710151022
   10      H       0.8377967178     1.4475353801    -1.5015442936
   11      H       0.8377967178    -1.4475353801    -1.5015442936
   12      H      -1.6873090390    -0.0000000000    -1.4710151022
 ----------------------------------------------------------------
 Nuclear Repulsion Energy =         221.40584193 hartrees
 There are       21 alpha and       21 beta electrons

Z-matrix Print:
$molecule
0 1
C 
H  1 1.077485
C  1 1.512183 2 131.002056
H  3 1.078276 1 129.890082 2 1.600311 0
C  1 1.512183 2 131.002056 3 83.227265 0
H  5 1.078276 1 129.890082 2 -1.600311 0
C  1 1.541395 2 130.538270 3 -138.386367 0
H  7 1.077485 1 130.538270 2 -0.000000 0
C  7 1.512183 1 90.136062 2 -149.921138 0
H  9 1.078276 7 129.890082 1 151.288741 0
C  7 1.512183 1 90.136062 2 149.921138 0
H  11 1.078276 7 129.890082 1 -151.288741 0
$end

 -----------------------------------------------------------------------
                  END OF GEOMETRY OPTIMIZER USING LIBOPT3               
 -----------------------------------------------------------------------
 Total job time:  145.12s(wall), 576.21s(cpu) 
 Wed Aug  2 12:38:10 2023

        *************************************************************
        *                                                           *
        *  Thank you very much for using Q-Chem.  Have a nice day.  *
        *                                                           *
        *************************************************************


