                  Welcome to Q-Chem
     A Quantum Leap Into The Future Of Chemistry


 Q-Chem 6.0 (devel), Q-Chem, Inc., Pleasanton, CA (2022)

 E. Epifanovsky,  A. T. B. Gilbert,  Xintian Feng,  Joonho Lee,  Yuezhi Mao,  
 N. Mardirossian,  P. Pokhilko,  A. White,  M. Wormit,  M. P. Coons,  
 A. L. Dempwolff,  Zhengting Gan,  D. Hait,  P. R. Horn,  L. D. Jacobson,  
 I. Kaliman,  J. Kussmann,  A. W. Lange,  Ka Un Lao,  D. S. Levine,  Jie Liu,  
 S. C. McKenzie,  A. F. Morrison,  K. Nanda,  F. Plasser,  D. R. Rehn,  
 M. L. Vidal,  Zhi-Qiang You,  Ying Zhu,  B. Alam,  B. Albrecht,  
 A. Aldossary,  E. Alguire,  J. H. Andersen,  V. Athavale,  D. Barton,  
 K. Begam,  A. Behn,  N. Bellonzi,  Y. A. Bernard,  E. J. Berquist,  
 H. Burton,  A. Carreras,  K. Carter-Fenk,  Romit Chakraborty,  
 Chandrima Chakravarty,  Junhan Chen,  A. D. Chien,  K. D. Closser,  
 V. Cofer-Shabica,  L. Cunha,  S. Dasgupta,  Jia Deng,  M. de Wergifosse,  
 M. Diedenhofen,  Hainam Do,  S. Ehlert,  Po-Tung Fang,  S. Fatehi,  
 Qingguo Feng,  T. Friedhoff,  B. Ganoe,  J. Gayvert,  Qinghui Ge,  
 G. Gidofalvi,  M. Goldey,  J. Gomes,  C. Gonzalez-Espinoza,  S. Gulania,  
 A. Gunina,  J. A. Gyamfi,  M. W. D. Hanson-Heine,  P. H. P. Harbach,  
 A. W. Hauser,  M. F. Herbst,  M. Hernandez Vera,  M. Hodecker,  
 Z. C. Holden,  S. Houck,  Xunkun Huang,  Kerwin Hui,  B. C. Huynh,  
 K. Ikeda,  M. Ivanov,  Hyunjun Ji,  Zuxin Jin,  Hanjie Jiang,  B. Kaduk,  
 S. Kaehler,  R. Kang,  K. Khistyaev,  Jaehoon Kim,  Yongbin Kim,  
 P. Klunzinger,  Z. Koczor-Benda,  Joong Hoon Koh,  D. Kosenkov,  
 Saikiran Kotaru,  L. Koulias,  T. Kowalczyk,  C. M. Krauter,  K. Kue,  
 A. Kunitsa,  T. Kus,  A. Landau,  K. V. Lawler,  D. Lefrancois,  S. Lehtola,  
 Rain Li,  Shaozhi Li,  Yi-Pei Li,  Jiashu Liang,  M. Liebenthal,  
 Hung-Hsuan Lin,  You-Sheng Lin,  Fenglai Liu,  Kuan-Yu Liu,  
 M. Loipersberger,  A. Luenser,  C. Malbon,  A. Manjanath,  P. Manohar,  
 E. Mansoor,  S. F. Manzer,  Shan-Ping Mao,  A. V. Marenich,  T. Markovich,  
 S. Mason,  F. Matz,  S. A. Maurer,  P. F. McLaughlin,  M. F. S. J. Menger,  
 J.-M. Mewes,  S. A. Mewes,  P. Morgante,  Mohammad Mostafanejad,  
 J. W. Mullinax,  K. J. Oosterbaan,  G. Paran,  V. Parravicini,  
 Alexander C. Paul,  Suranjan K. Paul,  F. Pavosevic,  Zheng Pei,  S. Prager,  
 E. I. Proynov,  E. Ramos,  B. Rana,  A. E. Rask,  A. Rettig,  R. M. Richard,  
 F. Rob,  E. Rossomme,  T. Scheele,  M. Scheurer,  M. Schneider,  
 P. E. Schneider,  N. Sergueev,  S. M. Sharada,  Hengyuan Shen,  
 W. Skomorowski,  D. W. Small,  C. J. Stein,  Yingli Su,  Yu-Chuan Su,  
 E. J. Sundstrom,  Zhen Tao,  J. Thirman,  Hung-Yi Tsai,  T. Tsuchimochi,  
 N. M. Tubman,  C. Utku,  S. P. Veccham,  O. Vydrov,  J. Wenzel,  
 Jonathan Wong,  J. Witte,  A. Yamada,  Chou-Hsun Yang,  Kun Yao,  
 S. Yeganeh,  S. R. Yost,  A. Zech,  F. Zeller,  Igor Ying Zhang,  
 Xing Zhang,  Yu Zhang,  D. Zuev,  A. Aspuru-Guzik,  A. T. Bell,  
 N. A. Besley,  K. B. Bravaya,  B. R. Brooks,  D. Casanova,  Jeng-Da Chai,  
 Hsing-Ta Chen,  S. Coriani,  C. J. Cramer,  A. E. DePrince, III,  
 R. A. DiStasio Jr.,  A. Dreuw,  B. D. Dunietz,  T. R. Furlani,  
 W. A. Goddard III,  S. Grimme,  S. Hammes-Schiffer,  T. Head-Gordon,  
 W. J. Hehre,  Chao-Ping Hsu,  T.-C. Jagau,  Yousung Jung,  A. Klamt,  
 Jing Kong,  D. S. Lambrecht,  Xiangyuan Li,  WanZhen Liang,  N. J. Mayhall,  
 C. W. McCurdy,  J. B. Neaton,  T. Neudecker,  C. Ochsenfeld,  
 J. A. Parkhill,  R. Peverati,  V. A. Rassolov,  Haisheng Ren,  Yihan Shao,  
 L. V. Slipchenko,  R. P. Steele,  J. E. Subotnik,  A. J. W. Thom,  
 A. Tkatchenko,  D. G. Truhlar,  T. Van Voorhis,  Fan Wang,  
 T. A. Wesolowski,  K. B. Whaley,  H. L. Woodcock III,  P. M. Zimmerman,  
 S. Faraji,  P. M. W. Gill,  M. Head-Gordon,  J. M. Herbert,  A. I. Krylov

 Contributors to earlier versions of Q-Chem not listed above: 
 R. D. Adamson,  B. Austin,  R. Baer,  J. Baker,  G. J. O. Beran,  
 K. Brandhorst,  S. T. Brown,  E. F. C. Byrd,  Arup K. Chakraborty,  
 G. K. L. Chan,  Chun-Min Chang,  Yunqing Chen,  C.-L. Cheng,  
 Siu Hung Chien,  D. M. Chipman,  D. L. Crittenden,  H. Dachsel,  
 R. J. Doerksen,  A. D. Dutoi,  R. G. Edgar,  J. Fosso-Tande,  
 L. Fusti-Molnar,  D. Ghosh,  A. Ghysels,  A. Golubeva-Zadorozhnaya,  
 J. Gonthier,  M. S. Gordon,  S. R. Gwaltney,  G. Hawkins,  J. E. Herr,  
 A. Heyden,  S. Hirata,  E. G. Hohenstein,  G. Kedziora,  F. J. Keil,  
 C. Kelley,  Jihan Kim,  R. A. King,  R. Z. Khaliullin,  P. P. Korambath,  
 W. Kurlancheek,  A. Laurent,  A. M. Lee,  M. S. Lee,  S. V. Levchenko,  
 Ching Yeh Lin,  D. Liotard,  E. Livshits,  R. C. Lochan,  I. Lotan,  
 L. A. Martinez-Martinez,  P. E. Maslen,  N. Nair,  D. P. O'Neill,  
 D. Neuhauser,  E. Neuscamman,  C. M. Oana,  R. Olivares-Amaya,  R. Olson,  
 T. M. Perrine,  B. Peters,  P. A. Pieniazek,  A. Prociuk,  Y. M. Rhee,  
 J. Ritchie,  M. A. Rohrdanz,  E. Rosta,  N. J. Russ,  H. F. Schaefer III,  
 M. W. Schmidt,  N. E. Schultz,  S. Sharma,  N. Shenvi,  C. D. Sherrill,  
 A. C. Simmonett,  A. Sodt,  T. Stein,  D. Stuck,  K. S. Thanthiriwatte,  
 V. Vanovschi,  L. Vogt,  Tao Wang,  A. Warshel,  M. A. Watson,  
 C. F. Williams,  Q. Wu,  X. Xu,  Jun Yang,  W. Zhang,  Yan Zhao

   Please cite Q-Chem as follows:
  "Software for the frontiers of quantum chemistry:
   An overview of developments in the Q-Chem 5 package"
   J. Chem. Phys. 155, 084801 (2021)
   https://doi.org/10.1063/5.0055522 (open access)

 Q-Chem 6.0.0 for Intel X86 EM64T Linux

 Parts of Q-Chem use Armadillo 9.900.5 (Nocturnal Misbehaviour).
 http://arma.sourceforge.net/

 Q-Chem begins on Thu Jul 27 11:55:26 2023  

 Host: 
0

     Scratch files written to /mnt/scratch/hwang/qchem12804//
 Processing $rem in /opt/qchem-6.0.0/config/preferences:
 Processing $rem in /home/hwang/.qchemrc:

 Checking the input file for inconsistencies... 	...done.

--------------------------------------------------------------
User input:
--------------------------------------------------------------
$comment
   ASE generated input file
$end

$rem
   METHOD                      PBE
   BASIS                       CC-PVDZ
   JOBTYPE                     FREQ
   DFT_D                       D3_BJ
   VIBMAN_PRINT                7
   SYM_IGNORE                  TRUE
$end

$molecule
   0 1
   C  0.441792  -0.765556  0.781200
   C  0.441792  0.765556  0.781200
   C  -0.883505  0.000000  0.781252
   C  0.441792  0.765556  -0.781200
   C  0.441792  -0.765556  -0.781200
   C  -0.883505  0.000000  -0.781252
   H  0.844410  -1.463306  1.527769
   H  0.844410  1.463306  1.527769
   H  -1.688887  -0.000000  1.528010
   H  0.844410  1.463306  -1.527769
   H  0.844410  -1.463306  -1.527769
   H  -1.688887  0.000000  -1.528010
$end

--------------------------------------------------------------
 Adding empirical dispersion correction 
 ----------------------------------------------------------------
 Doing -D3(BJ) with
 s6  =   1.00000
 s8  =   0.78750
 a1  =   0.42890
 a2  =   4.44070
 -D3 energy without 3body term =     -0.0095022155 hartrees
 ----------------------------------------------------------------
             Standard Nuclear Orientation (Angstroms)
    I     Atom           X                Y                Z
 ----------------------------------------------------------------
    1      C       0.4417920000    -0.7655560000     0.7812000000
    2      C       0.4417920000     0.7655560000     0.7812000000
    3      C      -0.8835050000     0.0000000000     0.7812520000
    4      C       0.4417920000     0.7655560000    -0.7812000000
    5      C       0.4417920000    -0.7655560000    -0.7812000000
    6      C      -0.8835050000     0.0000000000    -0.7812520000
    7      H       0.8444100000    -1.4633060000     1.5277690000
    8      H       0.8444100000     1.4633060000     1.5277690000
    9      H      -1.6888870000    -0.0000000000     1.5280100000
   10      H       0.8444100000     1.4633060000    -1.5277690000
   11      H       0.8444100000    -1.4633060000    -1.5277690000
   12      H      -1.6888870000     0.0000000000    -1.5280100000
 ----------------------------------------------------------------
 Nuclear Repulsion Energy =         218.74895823 hartrees
 There are       21 alpha and       21 beta electrons
 Requested basis set is cc-pVDZ
 There are 54 shells and 114 basis functions

 Total QAlloc Memory Limit   2000 MB
 Mega-Array Size       204 MB
 MEM_STATIC part       192 MB


                       Distance Matrix (Angstroms)
             C (  1)   C (  2)   C (  3)   C (  4)   C (  5)   C (  6)
   C (  2)  1.531112
   C (  3)  1.530519  1.530519
   C (  4)  2.187555  1.562400  2.187177
   C (  5)  1.562400  2.187555  2.187177  1.531112
   C (  6)  2.187177  2.187177  1.562504  1.530519  1.530519
   H (  7)  1.098327  2.384804  2.384165  3.234388  2.445464  3.233965
   H (  8)  2.384804  1.098327  2.384165  2.445464  3.234388  3.233965
   H (  9)  2.384029  2.384029  1.098311  3.233933  3.233933  2.445676
   H ( 10)  3.234388  2.445464  3.233965  1.098327  2.384804  2.384165
   H ( 11)  2.445464  3.234388  3.233965  2.384804  1.098327  2.384165
   H ( 12)  3.233933  3.233933  2.445676  2.384029  2.384029  1.098311
             H (  7)   H (  8)   H (  9)   H ( 10)   H ( 11)
   H (  8)  2.926612
   H (  9)  2.925553  2.925553
   H ( 10)  4.231001  3.055538  4.230442
   H ( 11)  3.055538  4.231001  4.230442  2.926612
   H ( 12)  4.230442  4.230442  3.056020  2.925553  2.925553

 A cutoff of  1.0D-12 yielded   1485 shell pairs
 There are      6669 function pairs (      7404 Cartesian)
 Smallest overlap matrix eigenvalue = 6.96E-04
 Guess from superposition of atomic densities
 Warning:  Energy on first SCF cycle will be non-variational
 SAD guess density has 42.000000 electrons

 -----------------------------------------------------------------------
  General SCF calculation program by
  Eric Jon Sundstrom, Paul Horn, Yuezhi Mao, Dmitri Zuev, Alec White,
  David Stuck, Shaama M.S., Shane Yost, Joonho Lee, David Small,
  Daniel Levine, Susi Lehtola, Hugh Burton, Evgeny Epifanovsky,
  Bang C. Huynh
 -----------------------------------------------------------------------
 Exchange:  PBE      Correlation:  PBE
 Using SG-1 standard quadrature grid
 Dispersion:   Grimme D3
 using 4 threads for integral computing
 -------------------------------------------------------
 OpenMP Integral computing Module                
 Release: version 1.0, May 2013, Q-Chem Inc. Pittsburgh 
 -------------------------------------------------------
 A restricted SCF calculation will be
 performed using DIIS
 SCF converges when DIIS error is below 1.0e-08
 ---------------------------------------
  Cycle       Energy         DIIS error
 ---------------------------------------
    1    -233.1578456992      7.45e-02  
    2    -231.6386106871      8.83e-03  
    3    -231.3876863788      1.54e-02  
    4    -231.7885980116      6.35e-04  
    5    -231.7892434441      1.27e-04  
    6    -231.7892696503      2.45e-05  
    7    -231.7892706699      5.25e-06  
    8    -231.7892707128      2.37e-06  
    9    -231.7892707209      8.66e-07  
   10    -231.7892707222      6.53e-09  Convergence criterion met
 ---------------------------------------
 SCF time:   CPU 8.76s  wall 3.00s 
 SCF   energy in the final basis set =     -231.7892707222
 Total energy in the final basis set =     -231.7892707222

 --------------------------------------------------------------

                    Orbital Energies (a.u.)
 --------------------------------------------------------------

 Alpha MOs
 -- Occupied --
 -9.9064  -9.9064  -9.9063  -9.9063  -9.9063  -9.9062  -0.8830  -0.6759
 -0.5738  -0.5737  -0.4775  -0.4575  -0.4574  -0.3902  -0.3785  -0.3509
 -0.3508  -0.2537  -0.2536  -0.1919  -0.1917
 -- Virtual --
  0.0421   0.0440   0.0456   0.0815   0.0816   0.1012   0.1015   0.1016
  0.1450   0.1451   0.1793   0.2102   0.2103   0.2880   0.3113   0.3115
  0.3742   0.4068   0.4322   0.4324   0.4365   0.4366   0.4936   0.4937
  0.5276   0.5610   0.5611   0.5624   0.6194   0.6195   0.6197   0.6256
  0.6257   0.6566   0.6932   0.6933   0.7078   0.7277   0.9621   0.9623
  0.9626   0.9628   1.0150   1.0861   1.1356   1.1892   1.1895   1.2951
  1.3159   1.3159   1.3511   1.3511   1.3982   1.3984   1.4286   1.4288
  1.4518   1.5527   1.5530   1.5659   1.5660   1.5880   1.6075   1.6351
  1.6947   1.6949   1.7643   1.7954   1.7954   1.8109   1.8109   1.8292
  1.9277   1.9301   1.9301   1.9713   1.9714   1.9975   2.0518   2.0520
  2.0846   2.2460   2.2669   2.2669   2.3053   2.3576   2.3576   2.3608
  2.5608   2.5609   2.6078   3.1986   3.1989
 --------------------------------------------------------------

          Ground-State Mulliken Net Atomic Charges

     Atom                 Charge (a.u.)
  ----------------------------------------
      1 C                     0.033725
      2 C                     0.033725
      3 C                     0.034236
      4 C                     0.033725
      5 C                     0.033725
      6 C                     0.034236
      7 H                    -0.033876
      8 H                    -0.033876
      9 H                    -0.033933
     10 H                    -0.033876
     11 H                    -0.033876
     12 H                    -0.033933
  ----------------------------------------
  Sum of atomic charges =     0.000000

 -----------------------------------------------------------------
                    Cartesian Multipole Moments
 -----------------------------------------------------------------
    Charge (ESU x 10^10)
                 0.0000
    Dipole Moment (Debye)
         X      -0.0015      Y      -0.0000      Z       0.0000
       Tot       0.0015
    Quadrupole Moments (Debye-Ang)
        XX     -35.6167     XY       0.0000     YY     -35.6070
        XZ      -0.0000     YZ       0.0000     ZZ     -33.0067
    Octopole Moments (Debye-Ang^2)
       XXX      -4.0950    XXY      -0.0000    XYY       4.0913
       YYY      -0.0000    XXZ      -0.0000    XYZ       0.0000
       YYZ       0.0000    XZZ      -0.0049    YZZ      -0.0000
       ZZZ      -0.0000
    Hexadecapole Moments (Debye-Ang^3)
      XXXX    -148.4337   XXXY       0.0000   XXYY     -49.4857
      XYYY      -0.0000   YYYY    -148.5055   XXXZ       0.0000
      XXYZ       0.0000   XYYZ      -0.0000   YYYZ       0.0000
      XXZZ     -55.9844   XYZZ      -0.0000   YYZZ     -55.9843
      XZZZ       0.0000   YZZZ       0.0000   ZZZZ    -205.5847
 -----------------------------------------------------------------
 Calculating MO derivatives via CPSCF
    1     0    39    0.0365158  
    2     0    39    0.0050686  
    3     0    39    0.0003074  
    4    24    15    0.0000082  
    5    39     0    0.0000001  Converged
 ------------------------------------------------------------------------------
                     AOints        : Timing summary (seconds)
 ------------------------------------------------------------------------------
     job step          cpu (% of tot)      sys (% of tot)     wall (% of tot)
 ------------------------------------------------------------------------------
  AOints            0.1686E+01 ( 2.8)   0.2000E-05 (10.5)   0.4271E+00 ( 2.8)
 ------------------------------------------------------------------------------
   Grand Totals     0.6129E+02          0.1900E-04          0.1542E+02
 ------------------------------------------------------------------------------
 Polarizability Matrix (a.u.)
            1           2           3
    1 -52.3190703   0.0000000  -0.0000000
    2   0.0000000 -52.3492652   0.0000000
    3  -0.0000000   0.0000000 -57.6200206
 Calculating analytic Hessian of the SCF energy

 Direct stationary perturbation theory relativistic correction:

 rels  =       0.050937073887
 relv  =      -0.257880325802
 rel2e =       0.000000000000
 E_rel =      -0.206943251915


 Mass-Weighted Hessian Matrix:


     0.025017   -0.014265    0.007654   -0.001533    0.001966   -0.001013
    -0.014265    0.041735   -0.013162   -0.001966   -0.017032    0.001004
     0.007654   -0.013162    0.043047   -0.001013   -0.001004   -0.003041
    -0.001533   -0.001966   -0.001013    0.025017    0.014265    0.007654
     0.001966   -0.017032   -0.001004    0.014265    0.041735    0.013162
    -0.001013    0.001004   -0.003041    0.007654    0.013162    0.043047
    -0.012986    0.008560    0.001326   -0.012986   -0.008560    0.001326
     0.004617   -0.005237    0.000315   -0.004617   -0.005237   -0.000315
    -0.000382    0.001380   -0.002761   -0.000382   -0.001380   -0.002761
     0.000625    0.000729   -0.000851   -0.002258   -0.000372   -0.000823
    -0.000729   -0.003234    0.002110   -0.000372   -0.002875   -0.001449
     0.000851    0.002110   -0.003422    0.000823    0.001449   -0.015210
    -0.002258    0.000372   -0.000823    0.000625   -0.000729   -0.000851
     0.000372   -0.002875    0.001449    0.000729   -0.003234   -0.002110
     0.000823   -0.001449   -0.015210    0.000851   -0.002110   -0.003422
    -0.002358    0.001002   -0.001422   -0.002358   -0.001002   -0.001422
     0.002465   -0.000386    0.001837   -0.002465   -0.000386   -0.001837
    -0.002288    0.000332   -0.003459   -0.002288   -0.000332   -0.003459
    -0.019501    0.021423   -0.020273    0.000197   -0.000740    0.002837
     0.021448   -0.044381    0.035174    0.003211   -0.001241    0.003736
    -0.020656    0.035807   -0.052692    0.000895   -0.000893    0.000714
     0.000197    0.000740    0.002837   -0.019501   -0.021423   -0.020273
    -0.003211   -0.001241   -0.003736   -0.021448   -0.044381   -0.035174
     0.000895    0.000893    0.000714   -0.020656   -0.035807   -0.052692
    -0.001952   -0.001959    0.001834   -0.001952    0.001959    0.001834
     0.001996    0.000907   -0.004340   -0.001996    0.000907    0.004340
    -0.001232   -0.000328    0.000718   -0.001232    0.000328    0.000718
    -0.000263    0.001029   -0.000637   -0.000681    0.001574   -0.000337
    -0.000442   -0.000589    0.000630    0.001580    0.001144   -0.000586
    -0.000036    0.000437   -0.000791    0.001904    0.003298    0.000557
    -0.000681   -0.001574   -0.000337   -0.000263   -0.001029   -0.000637
    -0.001580    0.001144    0.000586    0.000442   -0.000589   -0.000630
     0.001904   -0.003298    0.000557   -0.000036   -0.000437   -0.000791
    -0.000255   -0.000448   -0.000232   -0.000255    0.000448   -0.000232
     0.001021   -0.000598    0.000865   -0.001021   -0.000598   -0.000865
    -0.000360    0.000249   -0.000794   -0.000360   -0.000249   -0.000794


    -0.012986    0.004617   -0.000382    0.000625   -0.000729    0.000851
     0.008560   -0.005237    0.001380    0.000729   -0.003234    0.002110
     0.001326    0.000315   -0.002761   -0.000851    0.002110   -0.003422
    -0.012986   -0.004617   -0.000382   -0.002258   -0.000372    0.000823
    -0.008560   -0.005237   -0.001380   -0.000372   -0.002875    0.001449
     0.001326   -0.000315   -0.002761   -0.000823   -0.001449   -0.015210
     0.049766   -0.000000   -0.015195   -0.002358   -0.001002    0.001422
    -0.000000    0.016570    0.000000   -0.002465   -0.000386    0.001837
    -0.015195    0.000000    0.042809    0.002288    0.000332   -0.003459
    -0.002358   -0.002465    0.002288    0.025017    0.014265   -0.007654
    -0.001002   -0.000386    0.000332    0.014265    0.041735   -0.013162
     0.001422    0.001837   -0.003459   -0.007654   -0.013162    0.043047
    -0.002358    0.002465    0.002288   -0.001533    0.001966    0.001013
     0.001002   -0.000386   -0.000332   -0.001966   -0.017032   -0.001004
     0.001422   -0.001837   -0.003459    0.001013    0.001004   -0.003041
    -0.002951   -0.000000    0.001621   -0.012986   -0.008560   -0.001326
    -0.000000   -0.002051    0.000000   -0.004617   -0.005237    0.000315
    -0.001621   -0.000000   -0.015174    0.000382    0.001380   -0.002761
     0.000203    0.003219   -0.004665   -0.000263   -0.001029    0.000637
    -0.000750   -0.001230   -0.000600    0.000442   -0.000589    0.000630
     0.000327   -0.001226    0.000710    0.000036    0.000437   -0.000791
     0.000203   -0.003219   -0.004665   -0.000681    0.001574    0.000337
     0.000750   -0.001230    0.000600    0.001580    0.001144    0.000586
     0.000327    0.001226    0.000710   -0.001904   -0.003298    0.000557
    -0.056577   -0.000000    0.040605   -0.000255    0.000448    0.000232
    -0.000000   -0.007054    0.000000   -0.001021   -0.000598    0.000865
     0.041410    0.000000   -0.052822    0.000360    0.000249   -0.000794
    -0.000763   -0.000729    0.000866   -0.019501   -0.021423    0.020273
     0.000739   -0.000093   -0.000231   -0.021448   -0.044381    0.035174
     0.000395    0.000186   -0.000795    0.020656    0.035807   -0.052692
    -0.000763    0.000729    0.000866    0.000197   -0.000740   -0.002837
    -0.000739   -0.000093    0.000231    0.003211   -0.001241   -0.003736
     0.000395   -0.000186   -0.000795   -0.000895    0.000893    0.000714
     0.002053   -0.000000    0.000678   -0.001952    0.001959   -0.001834
     0.000000   -0.001592   -0.000000   -0.001996    0.000907   -0.004340
    -0.003795   -0.000000    0.000565    0.001232   -0.000328    0.000718


    -0.002258    0.000372    0.000823   -0.002358    0.002465   -0.002288
     0.000372   -0.002875   -0.001449    0.001002   -0.000386    0.000332
    -0.000823    0.001449   -0.015210   -0.001422    0.001837   -0.003459
     0.000625    0.000729    0.000851   -0.002358   -0.002465   -0.002288
    -0.000729   -0.003234   -0.002110   -0.001002   -0.000386   -0.000332
    -0.000851   -0.002110   -0.003422   -0.001422   -0.001837   -0.003459
    -0.002358    0.001002    0.001422   -0.002951   -0.000000   -0.001621
     0.002465   -0.000386   -0.001837   -0.000000   -0.002051   -0.000000
     0.002288   -0.000332   -0.003459    0.001621    0.000000   -0.015174
    -0.001533   -0.001966    0.001013   -0.012986   -0.004617    0.000382
     0.001966   -0.017032    0.001004   -0.008560   -0.005237    0.001380
     0.001013   -0.001004   -0.003041   -0.001326    0.000315   -0.002761
     0.025017   -0.014265   -0.007654   -0.012986    0.004617    0.000382
    -0.014265    0.041735    0.013162    0.008560   -0.005237   -0.001380
    -0.007654    0.013162    0.043047   -0.001326   -0.000315   -0.002761
    -0.012986    0.008560   -0.001326    0.049766    0.000000    0.015195
     0.004617   -0.005237   -0.000315    0.000000    0.016570    0.000000
     0.000382   -0.001380   -0.002761    0.015195    0.000000    0.042809
    -0.000681   -0.001574    0.000337   -0.000763    0.000729   -0.000866
    -0.001580    0.001144   -0.000586   -0.000739   -0.000093   -0.000231
    -0.001904    0.003298    0.000557   -0.000395    0.000186   -0.000795
    -0.000263    0.001029    0.000637   -0.000763   -0.000729   -0.000866
    -0.000442   -0.000589   -0.000630    0.000739   -0.000093    0.000231
     0.000036   -0.000437   -0.000791   -0.000395   -0.000186   -0.000795
    -0.000255   -0.000448    0.000232    0.002053   -0.000000   -0.000678
     0.001021   -0.000598   -0.000865   -0.000000   -0.001592    0.000000
     0.000360   -0.000249   -0.000794    0.003795   -0.000000    0.000565
     0.000197    0.000740   -0.002837    0.000203   -0.003219    0.004665
    -0.003211   -0.001241    0.003736    0.000750   -0.001230   -0.000600
    -0.000895   -0.000893    0.000714   -0.000327   -0.001226    0.000710
    -0.019501    0.021423    0.020273    0.000203    0.003219    0.004665
     0.021448   -0.044381   -0.035174   -0.000750   -0.001230    0.000600
     0.020656   -0.035807   -0.052692   -0.000327    0.001226    0.000710
    -0.001952   -0.001959   -0.001834   -0.056577    0.000000   -0.040605
     0.001996    0.000907    0.004340   -0.000000   -0.007054    0.000000
     0.001232    0.000328    0.000718   -0.041410    0.000000   -0.052822


    -0.019501    0.021448   -0.020656    0.000197   -0.003211    0.000895
     0.021423   -0.044381    0.035807    0.000740   -0.001241    0.000893
    -0.020273    0.035174   -0.052692    0.002837   -0.003736    0.000714
     0.000197    0.003211    0.000895   -0.019501   -0.021448   -0.020656
    -0.000740   -0.001241   -0.000893   -0.021423   -0.044381   -0.035807
     0.002837    0.003736    0.000714   -0.020273   -0.035174   -0.052692
     0.000203   -0.000750    0.000327    0.000203    0.000750    0.000327
     0.003219   -0.001230   -0.001226   -0.003219   -0.001230    0.001226
    -0.004665   -0.000600    0.000710   -0.004665    0.000600    0.000710
    -0.000263    0.000442    0.000036   -0.000681    0.001580   -0.001904
    -0.001029   -0.000589    0.000437    0.001574    0.001144   -0.003298
     0.000637    0.000630   -0.000791    0.000337    0.000586    0.000557
    -0.000681   -0.001580   -0.001904   -0.000263   -0.000442    0.000036
    -0.001574    0.001144    0.003298    0.001029   -0.000589   -0.000437
     0.000337   -0.000586    0.000557    0.000637   -0.000630   -0.000791
    -0.000763   -0.000739   -0.000395   -0.000763    0.000739   -0.000395
     0.000729   -0.000093    0.000186   -0.000729   -0.000093   -0.000186
    -0.000866   -0.000231   -0.000795   -0.000866    0.000231   -0.000795
     0.067896   -0.075739    0.076034    0.000383    0.001432   -0.000368
    -0.075739    0.155828   -0.131797   -0.001432    0.002142   -0.000231
     0.076034   -0.131797    0.177449   -0.000368    0.000231    0.000879
     0.000383   -0.001432   -0.000368    0.067896    0.075739    0.076034
     0.001432    0.002142    0.000231    0.075739    0.155828    0.131797
    -0.000368   -0.000231    0.000879    0.076034    0.131797    0.177449
     0.001679    0.000676   -0.000018    0.001679   -0.000676   -0.000018
    -0.002170    0.000811    0.000437    0.002170    0.000811   -0.000437
     0.000384    0.000200    0.000880    0.000384   -0.000200    0.000880
     0.000718    0.000833   -0.000983    0.000885   -0.000197    0.000180
    -0.000833    0.000081    0.000545   -0.000197    0.000654    0.000311
     0.000983    0.000545    0.000139   -0.000180   -0.000311    0.000972
     0.000885    0.000197    0.000180    0.000718   -0.000833   -0.000983
     0.000197    0.000654   -0.000311    0.000833    0.000081   -0.000545
    -0.000180    0.000311    0.000972    0.000983   -0.000545    0.000139
     0.000240   -0.000558    0.000021    0.000240    0.000558    0.000021
     0.001106    0.000556    0.001124   -0.001106    0.000556   -0.001124
    -0.000963   -0.000578    0.000138   -0.000963    0.000578    0.000138


    -0.001952    0.001996   -0.001232   -0.000263   -0.000442   -0.000036
    -0.001959    0.000907   -0.000328    0.001029   -0.000589    0.000437
     0.001834   -0.004340    0.000718   -0.000637    0.000630   -0.000791
    -0.001952   -0.001996   -0.001232   -0.000681    0.001580    0.001904
     0.001959    0.000907    0.000328    0.001574    0.001144    0.003298
     0.001834    0.004340    0.000718   -0.000337   -0.000586    0.000557
    -0.056577   -0.000000    0.041410   -0.000763    0.000739    0.000395
    -0.000000   -0.007054    0.000000   -0.000729   -0.000093    0.000186
     0.040605    0.000000   -0.052822    0.000866   -0.000231   -0.000795
    -0.000255   -0.001021    0.000360   -0.019501   -0.021448    0.020656
     0.000448   -0.000598    0.000249   -0.021423   -0.044381    0.035807
     0.000232    0.000865   -0.000794    0.020273    0.035174   -0.052692
    -0.000255    0.001021    0.000360    0.000197   -0.003211   -0.000895
    -0.000448   -0.000598   -0.000249    0.000740   -0.001241   -0.000893
     0.000232   -0.000865   -0.000794   -0.002837    0.003736    0.000714
     0.002053   -0.000000    0.003795    0.000203    0.000750   -0.000327
    -0.000000   -0.001592   -0.000000   -0.003219   -0.001230   -0.001226
    -0.000678    0.000000    0.000565    0.004665   -0.000600    0.000710
     0.001679   -0.002170    0.000384    0.000718   -0.000833    0.000983
     0.000676    0.000811    0.000200    0.000833    0.000081    0.000545
    -0.000018    0.000437    0.000880   -0.000983    0.000545    0.000139
     0.001679    0.002170    0.000384    0.000885   -0.000197   -0.000180
    -0.000676    0.000811   -0.000200   -0.000197    0.000654   -0.000311
    -0.000018   -0.000437    0.000880    0.000180    0.000311    0.000972
     0.198999   -0.000000   -0.152304    0.000240    0.000558   -0.000021
    -0.000000    0.023966    0.000000   -0.001106    0.000556    0.001124
    -0.152304    0.000000    0.177823    0.000963   -0.000578    0.000138
     0.000240   -0.001106    0.000963    0.067896    0.075739   -0.076034
     0.000558    0.000556   -0.000578    0.075739    0.155828   -0.131797
    -0.000021    0.001124    0.000138   -0.076034   -0.131797    0.177449
     0.000240    0.001106    0.000963    0.000383    0.001432    0.000368
    -0.000558    0.000556    0.000578   -0.001432    0.002142    0.000231
    -0.000021   -0.001124    0.000138    0.000368   -0.000231    0.000879
     0.000542   -0.000000   -0.000354    0.001679   -0.000676    0.000018
    -0.000000    0.001003    0.000000    0.002170    0.000811    0.000437
     0.000354   -0.000000    0.000980   -0.000384    0.000200    0.000880


    -0.000681   -0.001580    0.001904   -0.000255    0.001021   -0.000360
    -0.001574    0.001144   -0.003298   -0.000448   -0.000598    0.000249
    -0.000337    0.000586    0.000557   -0.000232    0.000865   -0.000794
    -0.000263    0.000442   -0.000036   -0.000255   -0.001021   -0.000360
    -0.001029   -0.000589   -0.000437    0.000448   -0.000598   -0.000249
    -0.000637   -0.000630   -0.000791   -0.000232   -0.000865   -0.000794
    -0.000763   -0.000739    0.000395    0.002053    0.000000   -0.003795
     0.000729   -0.000093   -0.000186   -0.000000   -0.001592   -0.000000
     0.000866    0.000231   -0.000795    0.000678   -0.000000    0.000565
     0.000197    0.003211   -0.000895   -0.001952   -0.001996    0.001232
    -0.000740   -0.001241    0.000893    0.001959    0.000907   -0.000328
    -0.002837   -0.003736    0.000714   -0.001834   -0.004340    0.000718
    -0.019501    0.021448    0.020656   -0.001952    0.001996    0.001232
     0.021423   -0.044381   -0.035807   -0.001959    0.000907    0.000328
     0.020273   -0.035174   -0.052692   -0.001834    0.004340    0.000718
     0.000203   -0.000750   -0.000327   -0.056577   -0.000000   -0.041410
     0.003219   -0.001230    0.001226    0.000000   -0.007054    0.000000
     0.004665    0.000600    0.000710   -0.040605    0.000000   -0.052822
     0.000885    0.000197   -0.000180    0.000240    0.001106   -0.000963
     0.000197    0.000654    0.000311   -0.000558    0.000556   -0.000578
     0.000180   -0.000311    0.000972    0.000021    0.001124    0.000138
     0.000718    0.000833    0.000983    0.000240   -0.001106   -0.000963
    -0.000833    0.000081   -0.000545    0.000558    0.000556    0.000578
    -0.000983   -0.000545    0.000139    0.000021   -0.001124    0.000138
     0.000240   -0.000558   -0.000021    0.000542   -0.000000    0.000354
     0.001106    0.000556   -0.001124   -0.000000    0.001003   -0.000000
     0.000963    0.000578    0.000138   -0.000354    0.000000    0.000980
     0.000383   -0.001432    0.000368    0.001679    0.002170   -0.000384
     0.001432    0.002142   -0.000231   -0.000676    0.000811    0.000200
     0.000368    0.000231    0.000879    0.000018    0.000437    0.000880
     0.067896   -0.075739   -0.076034    0.001679   -0.002170   -0.000384
    -0.075739    0.155828    0.131797    0.000676    0.000811   -0.000200
    -0.076034    0.131797    0.177449    0.000018   -0.000437    0.000880
     0.001679    0.000676    0.000018    0.198999    0.000000    0.152304
    -0.002170    0.000811   -0.000437    0.000000    0.023966    0.000000
    -0.000384   -0.000200    0.000880    0.152304    0.000000    0.177823

 Vectors for Translations and Rotations


     0.392114    0.000000    0.000000   -0.309352   -0.277962    0.000000
     0.000000    0.392114    0.000000   -0.178514    0.000000    0.277908
     0.000000    0.000000    0.392114   -0.000000    0.157188    0.272342
     0.392114    0.000000    0.000000    0.309352   -0.277962    0.000000
     0.000000    0.392114    0.000000   -0.178514    0.000000    0.277908
     0.000000    0.000000    0.392114    0.000000    0.157188   -0.272342
     0.392114    0.000000    0.000000    0.000000   -0.277981    0.000000
     0.000000    0.392114    0.000000    0.357023   -0.000000    0.277926
     0.000000    0.000000    0.392114    0.000000   -0.314372    0.000000
     0.392114    0.000000    0.000000    0.309352    0.277962   -0.000000
     0.000000    0.392114    0.000000   -0.178514    0.000000   -0.277908
     0.000000    0.000000    0.392114    0.000000    0.157188   -0.272342
     0.392114    0.000000    0.000000   -0.309352    0.277962    0.000000
     0.000000    0.392114    0.000000   -0.178514    0.000000   -0.277908
     0.000000    0.000000    0.392114   -0.000000    0.157188    0.272342
     0.392114    0.000000    0.000000    0.000000    0.277981   -0.000000
     0.000000    0.392114    0.000000    0.357023    0.000000   -0.277926
     0.000000    0.000000    0.392114    0.000000   -0.314372   -0.000000
     0.113636    0.000000    0.000000   -0.171362   -0.157538    0.000000
     0.000000    0.113636    0.000000   -0.098883    0.000000    0.157507
     0.000000    0.000000    0.113636   -0.000000    0.087070    0.150861
     0.113636    0.000000    0.000000    0.171362   -0.157538    0.000000
     0.000000    0.113636    0.000000   -0.098883    0.000000    0.157507
     0.000000    0.000000    0.113636    0.000000    0.087070   -0.150861
     0.113636    0.000000    0.000000    0.000000   -0.157563    0.000000
     0.000000    0.113636    0.000000    0.197781   -0.000000    0.157532
     0.000000    0.000000    0.113636    0.000000   -0.174154    0.000000
     0.113636    0.000000    0.000000    0.171362    0.157538   -0.000000
     0.000000    0.113636    0.000000   -0.098883    0.000000   -0.157507
     0.000000    0.000000    0.113636    0.000000    0.087070   -0.150861
     0.113636    0.000000    0.000000   -0.171362    0.157538    0.000000
     0.000000    0.113636    0.000000   -0.098883    0.000000   -0.157507
     0.000000    0.000000    0.113636   -0.000000    0.087070    0.150861
     0.113636    0.000000    0.000000    0.000000    0.157563   -0.000000
     0.000000    0.113636    0.000000    0.197781    0.000000   -0.157532
     0.000000    0.000000    0.113636    0.000000   -0.174154   -0.000000

 The Projection Matrix


     0.673285   -0.055224    0.043692   -0.135318   -0.055224    0.043692
    -0.055224    0.737147   -0.075686    0.055224   -0.262853    0.075686
     0.043692   -0.075686    0.747368    0.043692   -0.075686   -0.104291
    -0.135318    0.055224    0.043692    0.673285    0.055224    0.043692
    -0.055224   -0.262853   -0.075686    0.055224    0.737147    0.075686
     0.043692    0.075686   -0.104291    0.043692    0.075686    0.747368
    -0.231022    0.000000    0.043695   -0.231022    0.000000    0.043695
     0.110446   -0.167258   -0.075691   -0.110446   -0.167258    0.075691
    -0.087384    0.000000   -0.104338   -0.087384    0.000000   -0.104338
     0.019208    0.055224   -0.043692   -0.172189    0.055224   -0.043692
    -0.055224   -0.108388    0.075686    0.055224   -0.108388   -0.075686
     0.043692    0.075686   -0.104291    0.043692    0.075686   -0.252632
    -0.172189   -0.055224   -0.043692    0.019208   -0.055224   -0.043692
    -0.055224   -0.108388    0.075686    0.055224   -0.108388   -0.075686
     0.043692   -0.075686   -0.252632    0.043692   -0.075686   -0.104291
    -0.076485    0.000000   -0.043695   -0.076485    0.000000   -0.043695
     0.110446   -0.012782    0.075691   -0.110446   -0.012782   -0.075691
    -0.087384    0.000000   -0.104338   -0.087384    0.000000   -0.104338
    -0.141359   -0.030590    0.024763   -0.035337   -0.030590    0.024763
    -0.030590   -0.105983   -0.042896    0.030590   -0.105983    0.042896
     0.024202   -0.041925   -0.099330    0.024202   -0.041925   -0.017159
    -0.035337    0.030590    0.024763   -0.141359    0.030590    0.024763
    -0.030590   -0.105983   -0.042896    0.030590   -0.105983    0.042896
     0.024202    0.041925   -0.017159    0.024202    0.041925   -0.099330
    -0.088355    0.000000    0.024767   -0.088355    0.000000    0.024767
     0.061184   -0.053031   -0.042903   -0.061184   -0.053031    0.042903
    -0.048408    0.000000   -0.017183   -0.048408    0.000000   -0.017183
     0.052242    0.030590   -0.024763   -0.053780    0.030590   -0.024763
    -0.030590   -0.018438    0.042896    0.030590   -0.018438   -0.042896
     0.024202    0.041925   -0.017159    0.024202    0.041925   -0.099330
    -0.053780   -0.030590   -0.024763    0.052242   -0.030590   -0.024763
    -0.030590   -0.018438    0.042896    0.030590   -0.018438   -0.042896
     0.024202   -0.041925   -0.099330    0.024202   -0.041925   -0.017159
    -0.000762    0.000000   -0.024767   -0.000762    0.000000   -0.024767
     0.061184    0.034528    0.042903   -0.061184    0.034528   -0.042903
    -0.048408    0.000000   -0.017183   -0.048408    0.000000   -0.017183


    -0.231022    0.110446   -0.087384    0.019208   -0.055224    0.043692
     0.000000   -0.167258    0.000000    0.055224   -0.108388    0.075686
     0.043695   -0.075691   -0.104338   -0.043692    0.075686   -0.104291
    -0.231022   -0.110446   -0.087384   -0.172189    0.055224    0.043692
     0.000000   -0.167258    0.000000    0.055224   -0.108388    0.075686
     0.043695    0.075691   -0.104338   -0.043692   -0.075686   -0.252632
     0.768973    0.000000   -0.087389   -0.076485    0.000000    0.043695
     0.000000    0.641538    0.000000   -0.110446   -0.012782    0.075691
    -0.087389    0.000000    0.747417    0.087384    0.000000   -0.104338
    -0.076485   -0.110446    0.087384    0.673285    0.055224   -0.043692
     0.000000   -0.012782    0.000000    0.055224    0.737147   -0.075686
     0.043695    0.075691   -0.104338   -0.043692   -0.075686    0.747368
    -0.076485    0.110446    0.087384   -0.135318   -0.055224   -0.043692
     0.000000   -0.012782    0.000000    0.055224   -0.262853   -0.075686
     0.043695   -0.075691   -0.104338   -0.043692    0.075686   -0.104291
    -0.076480    0.000000    0.087389   -0.231022    0.000000   -0.043695
     0.000000   -0.203976    0.000000   -0.110446   -0.167258   -0.075691
    -0.087389    0.000000   -0.252583    0.087384    0.000000   -0.104338
    -0.088351    0.061180   -0.049525    0.052242   -0.030590    0.024763
     0.000000   -0.053030    0.000000    0.030590   -0.018438    0.042896
     0.024204   -0.041928   -0.017186   -0.024202    0.041925   -0.017159
    -0.088351   -0.061180   -0.049525   -0.053780    0.030590    0.024763
     0.000000   -0.053030    0.000000    0.030590   -0.018438    0.042896
     0.024204    0.041928   -0.017186   -0.024202   -0.041925   -0.099330
    -0.088358    0.000000   -0.049533   -0.000762    0.000000    0.024767
     0.000000   -0.158953    0.000000   -0.061184    0.034528    0.042903
    -0.048411    0.000000   -0.099307    0.048408    0.000000   -0.017183
    -0.000766   -0.061180    0.049525   -0.141359    0.030590   -0.024763
     0.000000    0.034520    0.000000    0.030590   -0.105983   -0.042896
     0.024204    0.041928   -0.017186   -0.024202   -0.041925   -0.099330
    -0.000766    0.061180    0.049525   -0.035337   -0.030590   -0.024763
     0.000000    0.034520    0.000000    0.030590   -0.105983   -0.042896
     0.024204   -0.041928   -0.017186   -0.024202    0.041925   -0.017159
    -0.000759    0.000000    0.049533   -0.088355    0.000000   -0.024767
     0.000000   -0.071389    0.000000   -0.061184   -0.053031   -0.042903
    -0.048411    0.000000   -0.099307    0.048408    0.000000   -0.017183


    -0.172189   -0.055224    0.043692   -0.076485    0.110446   -0.087384
    -0.055224   -0.108388   -0.075686    0.000000   -0.012782    0.000000
    -0.043692    0.075686   -0.252632   -0.043695    0.075691   -0.104338
     0.019208    0.055224    0.043692   -0.076485   -0.110446   -0.087384
    -0.055224   -0.108388   -0.075686    0.000000   -0.012782    0.000000
    -0.043692   -0.075686   -0.104291   -0.043695   -0.075691   -0.104338
    -0.076485    0.000000    0.043695   -0.076480    0.000000   -0.087389
     0.110446   -0.012782   -0.075691    0.000000   -0.203976    0.000000
     0.087384    0.000000   -0.104338    0.087389    0.000000   -0.252583
    -0.135318    0.055224   -0.043692   -0.231022   -0.110446    0.087384
    -0.055224   -0.262853    0.075686    0.000000   -0.167258    0.000000
    -0.043692   -0.075686   -0.104291   -0.043695   -0.075691   -0.104338
     0.673285   -0.055224   -0.043692   -0.231022    0.110446    0.087384
    -0.055224    0.737147    0.075686    0.000000   -0.167258    0.000000
    -0.043692    0.075686    0.747368   -0.043695    0.075691   -0.104338
    -0.231022    0.000000   -0.043695    0.768973    0.000000    0.087389
     0.110446   -0.167258    0.075691    0.000000    0.641538    0.000000
     0.087384    0.000000   -0.104338    0.087389    0.000000    0.747417
    -0.053780   -0.030590    0.024763   -0.000766    0.061180   -0.049525
    -0.030590   -0.018438   -0.042896    0.000000    0.034520    0.000000
    -0.024202    0.041925   -0.099330   -0.024204    0.041928   -0.017186
     0.052242    0.030590    0.024763   -0.000766   -0.061180   -0.049525
    -0.030590   -0.018438   -0.042896    0.000000    0.034520    0.000000
    -0.024202   -0.041925   -0.017159   -0.024204   -0.041928   -0.017186
    -0.000762    0.000000    0.024767   -0.000759    0.000000   -0.049533
     0.061184    0.034528   -0.042903    0.000000   -0.071389    0.000000
     0.048408    0.000000   -0.017183    0.048411    0.000000   -0.099307
    -0.035337    0.030590   -0.024763   -0.088351   -0.061180    0.049525
    -0.030590   -0.105983    0.042896    0.000000   -0.053030    0.000000
    -0.024202   -0.041925   -0.017159   -0.024204   -0.041928   -0.017186
    -0.141359   -0.030590   -0.024763   -0.088351    0.061180    0.049525
    -0.030590   -0.105983    0.042896    0.000000   -0.053030    0.000000
    -0.024202    0.041925   -0.099330   -0.024204    0.041928   -0.017186
    -0.088355    0.000000   -0.024767   -0.088358    0.000000    0.049533
     0.061184   -0.053031    0.042903    0.000000   -0.158953    0.000000
     0.048408    0.000000   -0.017183    0.048411    0.000000   -0.099307


    -0.141359   -0.030590    0.024202   -0.035337   -0.030590    0.024202
    -0.030590   -0.105983   -0.041925    0.030590   -0.105983    0.041925
     0.024763   -0.042896   -0.099330    0.024763   -0.042896   -0.017159
    -0.035337    0.030590    0.024202   -0.141359    0.030590    0.024202
    -0.030590   -0.105983   -0.041925    0.030590   -0.105983    0.041925
     0.024763    0.042896   -0.017159    0.024763    0.042896   -0.099330
    -0.088351    0.000000    0.024204   -0.088351    0.000000    0.024204
     0.061180   -0.053030   -0.041928   -0.061180   -0.053030    0.041928
    -0.049525    0.000000   -0.017186   -0.049525    0.000000   -0.017186
     0.052242    0.030590   -0.024202   -0.053780    0.030590   -0.024202
    -0.030590   -0.018438    0.041925    0.030590   -0.018438   -0.041925
     0.024763    0.042896   -0.017159    0.024763    0.042896   -0.099330
    -0.053780   -0.030590   -0.024202    0.052242   -0.030590   -0.024202
    -0.030590   -0.018438    0.041925    0.030590   -0.018438   -0.041925
     0.024763   -0.042896   -0.099330    0.024763   -0.042896   -0.017159
    -0.000766    0.000000   -0.024204   -0.000766    0.000000   -0.024204
     0.061180    0.034520    0.041928   -0.061180    0.034520   -0.041928
    -0.049525    0.000000   -0.017186   -0.049525    0.000000   -0.017186
     0.932904   -0.016945    0.013717   -0.008366   -0.016945    0.013717
    -0.016945    0.952501   -0.023762    0.016945   -0.047499    0.023762
     0.013717   -0.023762    0.956747    0.013717   -0.023762    0.002265
    -0.008366    0.016945    0.013717    0.932904    0.016945    0.013717
    -0.016945   -0.047499   -0.023762    0.016945    0.952501    0.023762
     0.013717    0.023762    0.002265    0.013717    0.023762    0.956747
    -0.037735    0.000000    0.013719   -0.037735    0.000000    0.013719
     0.033892   -0.018168   -0.023765   -0.033892   -0.018168    0.023765
    -0.027436    0.000000    0.002250   -0.027436    0.000000    0.002250
     0.041270    0.016945   -0.013717   -0.017460    0.016945   -0.013717
    -0.016945    0.002117    0.023762    0.016945    0.002117   -0.023762
     0.013717    0.023762    0.002265    0.013717    0.023762   -0.043253
    -0.017460   -0.016945   -0.013717    0.041270   -0.016945   -0.013717
    -0.016945    0.002117    0.023762    0.016945    0.002117   -0.023762
     0.013717   -0.023762   -0.043253    0.013717   -0.023762    0.002265
     0.011909    0.000000   -0.013719    0.011909    0.000000   -0.013719
     0.033892    0.031456    0.023765   -0.033892    0.031456   -0.023765
    -0.027436    0.000000    0.002250   -0.027436    0.000000    0.002250


    -0.088355    0.061184   -0.048408    0.052242   -0.030590    0.024202
     0.000000   -0.053031    0.000000    0.030590   -0.018438    0.041925
     0.024767   -0.042903   -0.017183   -0.024763    0.042896   -0.017159
    -0.088355   -0.061184   -0.048408   -0.053780    0.030590    0.024202
     0.000000   -0.053031    0.000000    0.030590   -0.018438    0.041925
     0.024767    0.042903   -0.017183   -0.024763   -0.042896   -0.099330
    -0.088358    0.000000   -0.048411   -0.000766    0.000000    0.024204
     0.000000   -0.158953    0.000000   -0.061180    0.034520    0.041928
    -0.049533    0.000000   -0.099307    0.049525    0.000000   -0.017186
    -0.000762   -0.061184    0.048408   -0.141359    0.030590   -0.024202
     0.000000    0.034528    0.000000    0.030590   -0.105983   -0.041925
     0.024767    0.042903   -0.017183   -0.024763   -0.042896   -0.099330
    -0.000762    0.061184    0.048408   -0.035337   -0.030590   -0.024202
     0.000000    0.034528    0.000000    0.030590   -0.105983   -0.041925
     0.024767   -0.042903   -0.017183   -0.024763    0.042896   -0.017159
    -0.000759    0.000000    0.048411   -0.088351    0.000000   -0.024204
     0.000000   -0.071389    0.000000   -0.061180   -0.053030   -0.041928
    -0.049533    0.000000   -0.099307    0.049525    0.000000   -0.017186
    -0.037735    0.033892   -0.027436    0.041270   -0.016945    0.013717
     0.000000   -0.018168    0.000000    0.016945    0.002117    0.023762
     0.013719   -0.023765    0.002250   -0.013717    0.023762    0.002265
    -0.037735   -0.033892   -0.027436   -0.017460    0.016945    0.013717
     0.000000   -0.018168    0.000000    0.016945    0.002117    0.023762
     0.013719    0.023765    0.002250   -0.013717   -0.023762   -0.043253
     0.962261    0.000000   -0.027440    0.011909    0.000000    0.013719
     0.000000    0.923153    0.000000   -0.033892    0.031456    0.023765
    -0.027440    0.000000    0.956757    0.027436    0.000000    0.002250
     0.011909   -0.033892    0.027436    0.932904    0.016945   -0.013717
     0.000000    0.031456    0.000000    0.016945    0.952501   -0.023762
     0.013719    0.023765    0.002250   -0.013717   -0.023762    0.956747
     0.011909    0.033892    0.027436   -0.008366   -0.016945   -0.013717
     0.000000    0.031456    0.000000    0.016945   -0.047499   -0.023762
     0.013719   -0.023765    0.002250   -0.013717    0.023762    0.002265
     0.011913    0.000000    0.027440   -0.037735    0.000000   -0.013719
     0.000000   -0.027214    0.000000   -0.033892   -0.018168   -0.023765
    -0.027440    0.000000   -0.043243    0.027436    0.000000    0.002250


    -0.053780   -0.030590    0.024202   -0.000762    0.061184   -0.048408
    -0.030590   -0.018438   -0.041925    0.000000    0.034528    0.000000
    -0.024763    0.042896   -0.099330   -0.024767    0.042903   -0.017183
     0.052242    0.030590    0.024202   -0.000762   -0.061184   -0.048408
    -0.030590   -0.018438   -0.041925    0.000000    0.034528    0.000000
    -0.024763   -0.042896   -0.017159   -0.024767   -0.042903   -0.017183
    -0.000766    0.000000    0.024204   -0.000759    0.000000   -0.048411
     0.061180    0.034520   -0.041928    0.000000   -0.071389    0.000000
     0.049525    0.000000   -0.017186    0.049533    0.000000   -0.099307
    -0.035337    0.030590   -0.024202   -0.088355   -0.061184    0.048408
    -0.030590   -0.105983    0.041925    0.000000   -0.053031    0.000000
    -0.024763   -0.042896   -0.017159   -0.024767   -0.042903   -0.017183
    -0.141359   -0.030590   -0.024202   -0.088355    0.061184    0.048408
    -0.030590   -0.105983    0.041925    0.000000   -0.053031    0.000000
    -0.024763    0.042896   -0.099330   -0.024767    0.042903   -0.017183
    -0.088351    0.000000   -0.024204   -0.088358    0.000000    0.048411
     0.061180   -0.053030    0.041928    0.000000   -0.158953    0.000000
     0.049525    0.000000   -0.017186    0.049533    0.000000   -0.099307
    -0.017460   -0.016945    0.013717    0.011909    0.033892   -0.027436
    -0.016945    0.002117   -0.023762    0.000000    0.031456    0.000000
    -0.013717    0.023762   -0.043253   -0.013719    0.023765    0.002250
     0.041270    0.016945    0.013717    0.011909   -0.033892   -0.027436
    -0.016945    0.002117   -0.023762    0.000000    0.031456    0.000000
    -0.013717   -0.023762    0.002265   -0.013719   -0.023765    0.002250
     0.011909    0.000000    0.013719    0.011913    0.000000   -0.027440
     0.033892    0.031456   -0.023765    0.000000   -0.027214    0.000000
     0.027436    0.000000    0.002250    0.027440    0.000000   -0.043243
    -0.008366    0.016945   -0.013717   -0.037735   -0.033892    0.027436
    -0.016945   -0.047499    0.023762    0.000000   -0.018168    0.000000
    -0.013717   -0.023762    0.002265   -0.013719   -0.023765    0.002250
     0.932904   -0.016945   -0.013717   -0.037735    0.033892    0.027436
    -0.016945    0.952501    0.023762    0.000000   -0.018168    0.000000
    -0.013717    0.023762    0.956747   -0.013719    0.023765    0.002250
    -0.037735    0.000000   -0.013719    0.962261    0.000000    0.027440
     0.033892   -0.018168    0.023765    0.000000    0.923153    0.000000
     0.027436    0.000000    0.002250    0.027440    0.000000    0.956757

 Translations and Rotations Projected Out of Hessian

 Projected Mass-Weighted Hessian Matrix:


     0.024967   -0.014281    0.007633   -0.001489    0.001955   -0.001002
    -0.014281    0.041721   -0.013194   -0.001955   -0.017046    0.001038
     0.007633   -0.013194    0.043021   -0.001002   -0.001038   -0.003001
    -0.001489   -0.001955   -0.001002    0.024967    0.014281    0.007633
     0.001955   -0.017046   -0.001038    0.014281    0.041721    0.013194
    -0.001002    0.001038   -0.003001    0.007633    0.013194    0.043021
    -0.013013    0.008558    0.001334   -0.013013   -0.008558    0.001334
     0.004636   -0.005251    0.000314   -0.004636   -0.005251   -0.000314
    -0.000370    0.001378   -0.002776   -0.000370   -0.001378   -0.002776
     0.000676    0.000735   -0.000840   -0.002302   -0.000371   -0.000824
    -0.000735   -0.003208    0.002131   -0.000371   -0.002849   -0.001468
     0.000840    0.002131   -0.003382    0.000824    0.001468   -0.015236
    -0.002302    0.000371   -0.000824    0.000676   -0.000735   -0.000840
     0.000371   -0.002849    0.001468    0.000735   -0.003208   -0.002131
     0.000824   -0.001468   -0.015236    0.000840   -0.002131   -0.003382
    -0.002331    0.001004   -0.001430   -0.002331   -0.001004   -0.001430
     0.002494   -0.000388    0.001863   -0.002494   -0.000388   -0.001863
    -0.002276    0.000330   -0.003474   -0.002276   -0.000330   -0.003474
    -0.019507    0.021422   -0.020290    0.000208   -0.000738    0.002843
     0.021428   -0.044386    0.035165    0.003223   -0.001246    0.003749
    -0.020658    0.035808   -0.052693    0.000898   -0.000894    0.000720
     0.000208    0.000738    0.002843   -0.019507   -0.021422   -0.020290
    -0.003223   -0.001246   -0.003749   -0.021428   -0.044386   -0.035165
     0.000898    0.000894    0.000720   -0.020658   -0.035808   -0.052693
    -0.001934   -0.001960    0.001819   -0.001934    0.001960    0.001819
     0.001996    0.000901   -0.004332   -0.001996    0.000901    0.004332
    -0.001235   -0.000330    0.000715   -0.001235    0.000330    0.000715
    -0.000257    0.001020   -0.000630   -0.000691    0.001561   -0.000333
    -0.000456   -0.000587    0.000637    0.001587    0.001146   -0.000588
    -0.000033    0.000437   -0.000785    0.001902    0.003297    0.000555
    -0.000691   -0.001561   -0.000333   -0.000257   -0.001020   -0.000630
    -0.001587    0.001146    0.000588    0.000456   -0.000587   -0.000637
     0.001902   -0.003297    0.000555   -0.000033   -0.000437   -0.000785
    -0.000273   -0.000447   -0.000217   -0.000273    0.000447   -0.000217
     0.001026   -0.000614    0.000871   -0.001026   -0.000614   -0.000871
    -0.000363    0.000247   -0.000796   -0.000363   -0.000247   -0.000796


    -0.013013    0.004636   -0.000370    0.000676   -0.000735    0.000840
     0.008558   -0.005251    0.001378    0.000735   -0.003208    0.002131
     0.001334    0.000314   -0.002776   -0.000840    0.002131   -0.003382
    -0.013013   -0.004636   -0.000370   -0.002302   -0.000371    0.000824
    -0.008558   -0.005251   -0.001378   -0.000371   -0.002849    0.001468
     0.001334   -0.000314   -0.002776   -0.000824   -0.001468   -0.015236
     0.049715   -0.000000   -0.015210   -0.002331   -0.001004    0.001430
    -0.000000    0.016586    0.000000   -0.002494   -0.000388    0.001863
    -0.015210    0.000000    0.042839    0.002276    0.000330   -0.003474
    -0.002331   -0.002494    0.002276    0.024967    0.014281   -0.007633
    -0.001004   -0.000388    0.000330    0.014281    0.041721   -0.013194
     0.001430    0.001863   -0.003474   -0.007633   -0.013194    0.043021
    -0.002331    0.002494    0.002276   -0.001489    0.001955    0.001002
     0.001004   -0.000388   -0.000330   -0.001955   -0.017046   -0.001038
     0.001430   -0.001863   -0.003474    0.001002    0.001038   -0.003001
    -0.002901   -0.000000    0.001636   -0.013013   -0.008558   -0.001334
    -0.000000   -0.002052   -0.000000   -0.004636   -0.005251    0.000314
    -0.001636   -0.000000   -0.015144    0.000370    0.001378   -0.002776
     0.000192    0.003206   -0.004654   -0.000257   -0.001020    0.000630
    -0.000754   -0.001220   -0.000604    0.000456   -0.000587    0.000637
     0.000335   -0.001219    0.000706    0.000033    0.000437   -0.000785
     0.000192   -0.003206   -0.004654   -0.000691    0.001561    0.000333
     0.000754   -0.001220    0.000604    0.001587    0.001146    0.000588
     0.000335    0.001219    0.000706   -0.001902   -0.003297    0.000555
    -0.056572   -0.000000    0.040634   -0.000273    0.000447    0.000217
    -0.000000   -0.007025    0.000000   -0.001026   -0.000614    0.000871
     0.041392    0.000000   -0.052816    0.000363    0.000247   -0.000796
    -0.000752   -0.000726    0.000855   -0.019507   -0.021422    0.020290
     0.000736   -0.000091   -0.000235   -0.021428   -0.044386    0.035165
     0.000403    0.000179   -0.000799    0.020658    0.035808   -0.052693
    -0.000752    0.000726    0.000855    0.000208   -0.000738   -0.002843
    -0.000736   -0.000091    0.000235    0.003223   -0.001246   -0.003749
     0.000403   -0.000179   -0.000799   -0.000898    0.000894    0.000720
     0.002048   -0.000000    0.000648   -0.001934    0.001960   -0.001819
     0.000000   -0.001587   -0.000000   -0.001996    0.000901   -0.004332
    -0.003813   -0.000000    0.000571    0.001235   -0.000330    0.000715


    -0.002302    0.000371    0.000824   -0.002331    0.002494   -0.002276
     0.000371   -0.002849   -0.001468    0.001004   -0.000388    0.000330
    -0.000824    0.001468   -0.015236   -0.001430    0.001863   -0.003474
     0.000676    0.000735    0.000840   -0.002331   -0.002494   -0.002276
    -0.000735   -0.003208   -0.002131   -0.001004   -0.000388   -0.000330
    -0.000840   -0.002131   -0.003382   -0.001430   -0.001863   -0.003474
    -0.002331    0.001004    0.001430   -0.002901   -0.000000   -0.001636
     0.002494   -0.000388   -0.001863   -0.000000   -0.002052   -0.000000
     0.002276   -0.000330   -0.003474    0.001636   -0.000000   -0.015144
    -0.001489   -0.001955    0.001002   -0.013013   -0.004636    0.000370
     0.001955   -0.017046    0.001038   -0.008558   -0.005251    0.001378
     0.001002   -0.001038   -0.003001   -0.001334    0.000314   -0.002776
     0.024967   -0.014281   -0.007633   -0.013013    0.004636    0.000370
    -0.014281    0.041721    0.013194    0.008558   -0.005251   -0.001378
    -0.007633    0.013194    0.043021   -0.001334   -0.000314   -0.002776
    -0.013013    0.008558   -0.001334    0.049715    0.000000    0.015210
     0.004636   -0.005251   -0.000314    0.000000    0.016586    0.000000
     0.000370   -0.001378   -0.002776    0.015210    0.000000    0.042839
    -0.000691   -0.001561    0.000333   -0.000752    0.000726   -0.000855
    -0.001587    0.001146   -0.000588   -0.000736   -0.000091   -0.000235
    -0.001902    0.003297    0.000555   -0.000403    0.000179   -0.000799
    -0.000257    0.001020    0.000630   -0.000752   -0.000726   -0.000855
    -0.000456   -0.000587   -0.000637    0.000736   -0.000091    0.000235
     0.000033   -0.000437   -0.000785   -0.000403   -0.000179   -0.000799
    -0.000273   -0.000447    0.000217    0.002048   -0.000000   -0.000648
     0.001026   -0.000614   -0.000871   -0.000000   -0.001587    0.000000
     0.000363   -0.000247   -0.000796    0.003813   -0.000000    0.000571
     0.000208    0.000738   -0.002843    0.000192   -0.003206    0.004654
    -0.003223   -0.001246    0.003749    0.000754   -0.001220   -0.000604
    -0.000898   -0.000894    0.000720   -0.000335   -0.001219    0.000706
    -0.019507    0.021422    0.020290    0.000192    0.003206    0.004654
     0.021428   -0.044386   -0.035165   -0.000754   -0.001220    0.000604
     0.020658   -0.035808   -0.052693   -0.000335    0.001219    0.000706
    -0.001934   -0.001960   -0.001819   -0.056572    0.000000   -0.040634
     0.001996    0.000901    0.004332   -0.000000   -0.007025    0.000000
     0.001235    0.000330    0.000715   -0.041392    0.000000   -0.052816


    -0.019507    0.021428   -0.020658    0.000208   -0.003223    0.000898
     0.021422   -0.044386    0.035808    0.000738   -0.001246    0.000894
    -0.020290    0.035165   -0.052693    0.002843   -0.003749    0.000720
     0.000208    0.003223    0.000898   -0.019507   -0.021428   -0.020658
    -0.000738   -0.001246   -0.000894   -0.021422   -0.044386   -0.035808
     0.002843    0.003749    0.000720   -0.020290   -0.035165   -0.052693
     0.000192   -0.000754    0.000335    0.000192    0.000754    0.000335
     0.003206   -0.001220   -0.001219   -0.003206   -0.001220    0.001219
    -0.004654   -0.000604    0.000706   -0.004654    0.000604    0.000706
    -0.000257    0.000456    0.000033   -0.000691    0.001587   -0.001902
    -0.001020   -0.000587    0.000437    0.001561    0.001146   -0.003297
     0.000630    0.000637   -0.000785    0.000333    0.000588    0.000555
    -0.000691   -0.001587   -0.001902   -0.000257   -0.000456    0.000033
    -0.001561    0.001146    0.003297    0.001020   -0.000587   -0.000437
     0.000333   -0.000588    0.000555    0.000630   -0.000637   -0.000785
    -0.000752   -0.000736   -0.000403   -0.000752    0.000736   -0.000403
     0.000726   -0.000091    0.000179   -0.000726   -0.000091   -0.000179
    -0.000855   -0.000235   -0.000799   -0.000855    0.000235   -0.000799
     0.067906   -0.075746    0.076030    0.000381    0.001430   -0.000366
    -0.075746    0.155827   -0.131791   -0.001430    0.002140   -0.000234
     0.076030   -0.131791    0.177455   -0.000366    0.000234    0.000873
     0.000381   -0.001430   -0.000366    0.067906    0.075746    0.076030
     0.001430    0.002140    0.000234    0.075746    0.155827    0.131791
    -0.000366   -0.000234    0.000873    0.076030    0.131791    0.177455
     0.001691    0.000674   -0.000024    0.001691   -0.000674   -0.000024
    -0.002184    0.000818    0.000445    0.002184    0.000818   -0.000445
     0.000385    0.000198    0.000881    0.000385   -0.000198    0.000881
     0.000708    0.000834   -0.000985    0.000887   -0.000201    0.000184
    -0.000834    0.000076    0.000542   -0.000201    0.000648    0.000317
     0.000985    0.000542    0.000133   -0.000184   -0.000317    0.000978
     0.000887    0.000201    0.000184    0.000708   -0.000834   -0.000985
     0.000201    0.000648   -0.000317    0.000834    0.000076   -0.000542
    -0.000184    0.000317    0.000978    0.000985   -0.000542    0.000133
     0.000227   -0.000556    0.000027    0.000227    0.000556    0.000027
     0.001099    0.000548    0.001115   -0.001099    0.000548   -0.001115
    -0.000962   -0.000580    0.000138   -0.000962    0.000580    0.000138


    -0.001934    0.001996   -0.001235   -0.000257   -0.000456   -0.000033
    -0.001960    0.000901   -0.000330    0.001020   -0.000587    0.000437
     0.001819   -0.004332    0.000715   -0.000630    0.000637   -0.000785
    -0.001934   -0.001996   -0.001235   -0.000691    0.001587    0.001902
     0.001960    0.000901    0.000330    0.001561    0.001146    0.003297
     0.001819    0.004332    0.000715   -0.000333   -0.000588    0.000555
    -0.056572   -0.000000    0.041392   -0.000752    0.000736    0.000403
    -0.000000   -0.007025    0.000000   -0.000726   -0.000091    0.000179
     0.040634    0.000000   -0.052816    0.000855   -0.000235   -0.000799
    -0.000273   -0.001026    0.000363   -0.019507   -0.021428    0.020658
     0.000447   -0.000614    0.000247   -0.021422   -0.044386    0.035808
     0.000217    0.000871   -0.000796    0.020290    0.035165   -0.052693
    -0.000273    0.001026    0.000363    0.000208   -0.003223   -0.000898
    -0.000447   -0.000614   -0.000247    0.000738   -0.001246   -0.000894
     0.000217   -0.000871   -0.000796   -0.002843    0.003749    0.000720
     0.002048   -0.000000    0.003813    0.000192    0.000754   -0.000335
    -0.000000   -0.001587   -0.000000   -0.003206   -0.001220   -0.001219
    -0.000648    0.000000    0.000571    0.004654   -0.000604    0.000706
     0.001691   -0.002184    0.000385    0.000708   -0.000834    0.000985
     0.000674    0.000818    0.000198    0.000834    0.000076    0.000542
    -0.000024    0.000445    0.000881   -0.000985    0.000542    0.000133
     0.001691    0.002184    0.000385    0.000887   -0.000201   -0.000184
    -0.000674    0.000818   -0.000198   -0.000201    0.000648   -0.000317
    -0.000024   -0.000445    0.000881    0.000184    0.000317    0.000978
     0.199021   -0.000000   -0.152293    0.000227    0.000556   -0.000027
    -0.000000    0.023994    0.000000   -0.001099    0.000548    0.001115
    -0.152293    0.000000    0.177820    0.000962   -0.000580    0.000138
     0.000227   -0.001099    0.000962    0.067906    0.075746   -0.076030
     0.000556    0.000548   -0.000580    0.075746    0.155827   -0.131791
    -0.000027    0.001115    0.000138   -0.076030   -0.131791    0.177455
     0.000227    0.001099    0.000962    0.000381    0.001430    0.000366
    -0.000556    0.000548    0.000580   -0.001430    0.002140    0.000234
    -0.000027   -0.001115    0.000138    0.000366   -0.000234    0.000873
     0.000520   -0.000000   -0.000365    0.001691   -0.000674    0.000024
    -0.000000    0.001008    0.000000    0.002184    0.000818    0.000445
     0.000365   -0.000000    0.000977   -0.000385    0.000198    0.000881


    -0.000691   -0.001587    0.001902   -0.000273    0.001026   -0.000363
    -0.001561    0.001146   -0.003297   -0.000447   -0.000614    0.000247
    -0.000333    0.000588    0.000555   -0.000217    0.000871   -0.000796
    -0.000257    0.000456   -0.000033   -0.000273   -0.001026   -0.000363
    -0.001020   -0.000587   -0.000437    0.000447   -0.000614   -0.000247
    -0.000630   -0.000637   -0.000785   -0.000217   -0.000871   -0.000796
    -0.000752   -0.000736    0.000403    0.002048    0.000000   -0.003813
     0.000726   -0.000091   -0.000179   -0.000000   -0.001587   -0.000000
     0.000855    0.000235   -0.000799    0.000648   -0.000000    0.000571
     0.000208    0.003223   -0.000898   -0.001934   -0.001996    0.001235
    -0.000738   -0.001246    0.000894    0.001960    0.000901   -0.000330
    -0.002843   -0.003749    0.000720   -0.001819   -0.004332    0.000715
    -0.019507    0.021428    0.020658   -0.001934    0.001996    0.001235
     0.021422   -0.044386   -0.035808   -0.001960    0.000901    0.000330
     0.020290   -0.035165   -0.052693   -0.001819    0.004332    0.000715
     0.000192   -0.000754   -0.000335   -0.056572   -0.000000   -0.041392
     0.003206   -0.001220    0.001219    0.000000   -0.007025    0.000000
     0.004654    0.000604    0.000706   -0.040634    0.000000   -0.052816
     0.000887    0.000201   -0.000184    0.000227    0.001099   -0.000962
     0.000201    0.000648    0.000317   -0.000556    0.000548   -0.000580
     0.000184   -0.000317    0.000978    0.000027    0.001115    0.000138
     0.000708    0.000834    0.000985    0.000227   -0.001099   -0.000962
    -0.000834    0.000076   -0.000542    0.000556    0.000548    0.000580
    -0.000985   -0.000542    0.000133    0.000027   -0.001115    0.000138
     0.000227   -0.000556   -0.000027    0.000520   -0.000000    0.000365
     0.001099    0.000548   -0.001115   -0.000000    0.001008   -0.000000
     0.000962    0.000580    0.000138   -0.000365    0.000000    0.000977
     0.000381   -0.001430    0.000366    0.001691    0.002184   -0.000385
     0.001430    0.002140   -0.000234   -0.000674    0.000818    0.000198
     0.000366    0.000234    0.000873    0.000024    0.000445    0.000881
     0.067906   -0.075746   -0.076030    0.001691   -0.002184   -0.000385
    -0.075746    0.155827    0.131791    0.000674    0.000818   -0.000198
    -0.076030    0.131791    0.177455    0.000024   -0.000445    0.000881
     0.001691    0.000674    0.000024    0.199021    0.000000    0.152293
    -0.002184    0.000818   -0.000445    0.000000    0.023994    0.000000
    -0.000385   -0.000198    0.000881    0.152293    0.000000    0.177820

 Eigenvectors of Proj. Mass-Weighted Hessian Matrix:


     0.222578    0.288202    0.273763    0.093791   -0.326568    0.061029
    -0.005271    0.113729    0.296769   -0.295874    0.135654    0.236381
     0.076580   -0.107361    0.008434    0.137924    0.214960    0.412237
     0.222738   -0.085754    0.347865    0.281499   -0.014955   -0.263200
    -0.005271    0.113729    0.296769   -0.295874    0.135654    0.236381
     0.079364    0.212151   -0.258387    0.257131    0.247950    0.083461
     0.222674    0.101223    0.310817    0.187640   -0.170767   -0.101092
    -0.005133   -0.209969    0.360919   -0.133402    0.405378   -0.044253
     0.475542    0.025005   -0.036858    0.083144    0.089782    0.097394
    -0.245960   -0.053463    0.243981    0.416346    0.152064   -0.085828
    -0.002431    0.439771    0.024496   -0.174231    0.169319   -0.099114
     0.079364    0.212151   -0.258387    0.257131    0.247950    0.083461
    -0.246120    0.320493    0.169879    0.228638   -0.159548    0.238401
    -0.002431    0.439771    0.024496   -0.174231    0.169319   -0.099114
     0.076580   -0.107361    0.008434    0.137924    0.214960    0.412237
    -0.246056    0.133516    0.206927    0.322497   -0.003736    0.076292
    -0.002292    0.116094    0.088628   -0.011752    0.439045   -0.379770
     0.475542    0.025005   -0.036858    0.083144    0.089782    0.097394
     0.129387    0.128438    0.083936   -0.016283   -0.158923    0.035944
    -0.001933    0.016307    0.118061   -0.116894    0.010904    0.139671
    -0.013177   -0.070899    0.029925    0.034298    0.070412    0.176134
     0.129476   -0.078711    0.124984    0.087696    0.013691   -0.143659
    -0.001933    0.016307    0.118061   -0.116894    0.010904    0.139671
    -0.011635    0.106091   -0.117878    0.100331    0.088687   -0.005987
     0.129452    0.024862    0.104465    0.035701   -0.072623   -0.053865
    -0.001857   -0.163016    0.153605   -0.026895    0.160319   -0.015780
     0.207831    0.002423    0.004837    0.003951    0.001068    0.001728
    -0.136163   -0.060410    0.066107    0.164122    0.108351   -0.043131
    -0.000323    0.201094   -0.036252   -0.047952    0.029984   -0.050474
    -0.011635    0.106091   -0.117878    0.100331    0.088687   -0.005987
    -0.136252    0.146739    0.025059    0.060143   -0.064263    0.136472
    -0.000323    0.201094   -0.036252   -0.047952    0.029984   -0.050474
    -0.013177   -0.070899    0.029925    0.034298    0.070412    0.176134
    -0.136228    0.043166    0.045579    0.112139    0.022052    0.046678
    -0.000247    0.021800   -0.000733    0.042057    0.179402   -0.205954
     0.207831    0.002423    0.004837    0.003951    0.001068    0.001728


     0.296859    0.039067   -0.196862   -0.226736    0.289406    0.087115
     0.185947   -0.204516    0.017718   -0.034901    0.217826   -0.108999
    -0.009591    0.177320   -0.107293    0.216931    0.125841    0.072931
    -0.296859   -0.039067   -0.196862    0.226736    0.289406   -0.087115
     0.185947   -0.204516   -0.017718   -0.034901   -0.217826   -0.108999
     0.009591   -0.177320   -0.107293   -0.216931    0.125841   -0.072931
     0.000000   -0.000000   -0.229141   -0.000000   -0.095794   -0.000000
    -0.339855   -0.196414    0.000000   -0.424949    0.000000    0.036199
    -0.000000    0.000000    0.215261   -0.000000   -0.250260    0.000000
     0.296859    0.039067    0.196862   -0.226736   -0.289406   -0.087115
    -0.185947    0.204516    0.017718    0.034901    0.217826   -0.108999
     0.009591   -0.177320   -0.107293   -0.216931    0.125841    0.072931
    -0.296859   -0.039067    0.196862    0.226736   -0.289406    0.087115
    -0.185947    0.204516   -0.017718    0.034901   -0.217826   -0.108999
    -0.009591    0.177320   -0.107293    0.216931    0.125841   -0.072931
    -0.000000    0.000000    0.229141    0.000000    0.095794   -0.000000
     0.339855    0.196414   -0.000000    0.424949   -0.000000    0.036199
    -0.000000    0.000000    0.215261   -0.000000   -0.250260   -0.000000
     0.172496    0.253612    0.290276   -0.138107    0.141519    0.277421
     0.107047    0.016724    0.239731    0.030394    0.143376    0.045396
     0.000148   -0.003012   -0.001793    0.138780    0.079795   -0.040019
    -0.172496   -0.253612    0.290276    0.138107    0.141519   -0.277421
     0.107047    0.016724   -0.239731    0.030394   -0.143376    0.045396
    -0.000148    0.003012   -0.001793   -0.138780    0.079795    0.040019
     0.000000   -0.000000   -0.128553   -0.000000   -0.114682   -0.000000
    -0.237663    0.427335   -0.000000   -0.203793    0.000000    0.536528
     0.000000    0.000000    0.001258   -0.000000   -0.164496    0.000000
     0.172496    0.253612   -0.290276   -0.138107   -0.141519   -0.277421
    -0.107047   -0.016724    0.239731   -0.030394    0.143376    0.045396
    -0.000148    0.003012   -0.001793   -0.138780    0.079795   -0.040019
    -0.172496   -0.253612   -0.290276    0.138107   -0.141519    0.277421
    -0.107047   -0.016724   -0.239731   -0.030394   -0.143376    0.045396
     0.000148   -0.003012   -0.001793    0.138780    0.079795    0.040019
    -0.000000    0.000000    0.128553    0.000000    0.114682   -0.000000
     0.237663   -0.427335    0.000000    0.203793   -0.000000    0.536528
    -0.000000   -0.000000    0.001258   -0.000000   -0.164496   -0.000000


    -0.011846    0.040466    0.003535    0.032228    0.325305   -0.211105
     0.087214    0.010034    0.035141   -0.049062   -0.183846   -0.336184
    -0.054032    0.172714   -0.303046   -0.164574   -0.071004   -0.042039
    -0.011846    0.040466   -0.003535    0.032228   -0.325305   -0.211105
    -0.087214   -0.010034    0.035141    0.049062   -0.183846    0.336184
    -0.054032    0.172714    0.303046   -0.164574    0.071004   -0.042039
    -0.164145    0.022777   -0.000000   -0.063119   -0.000000    0.371210
    -0.000000    0.000000    0.045967   -0.000000    0.417826    0.000000
     0.105342   -0.348051    0.000000   -0.162914   -0.000000    0.084583
    -0.011846    0.040466   -0.003535    0.032228   -0.325305   -0.211105
    -0.087214   -0.010034    0.035141    0.049062   -0.183846    0.336184
     0.054032   -0.172714   -0.303046    0.164574   -0.071004    0.042039
    -0.011846    0.040466    0.003535    0.032228    0.325305   -0.211105
     0.087214    0.010034    0.035141   -0.049062   -0.183846   -0.336184
     0.054032   -0.172714    0.303046    0.164574    0.071004    0.042039
    -0.164145    0.022777   -0.000000   -0.063119   -0.000000    0.371210
    -0.000000    0.000000    0.045967   -0.000000    0.417826    0.000000
    -0.105342    0.348051   -0.000000    0.162914    0.000000   -0.084583
     0.375199   -0.053520    0.097649    0.114475   -0.032354    0.092010
     0.271899    0.110053   -0.187293   -0.208053   -0.016150    0.051456
     0.009027    0.190132   -0.333006   -0.285698    0.082711    0.044672
     0.375199   -0.053520   -0.097649    0.114475    0.032354    0.092010
    -0.271899   -0.110053   -0.187293    0.208053   -0.016150   -0.051456
     0.009027    0.190132    0.333006   -0.285698   -0.082711    0.044672
    -0.102246   -0.250819    0.000000   -0.233566    0.000000   -0.008040
    -0.000000    0.000000   -0.026549    0.000000   -0.140695   -0.000000
    -0.024558   -0.387353    0.000000   -0.278985    0.000000   -0.100311
     0.375199   -0.053520   -0.097649    0.114475    0.032354    0.092010
    -0.271899   -0.110053   -0.187293    0.208053   -0.016150   -0.051456
    -0.009027   -0.190132   -0.333006    0.285698    0.082711   -0.044672
     0.375199   -0.053520    0.097649    0.114475   -0.032354    0.092010
     0.271899    0.110053   -0.187293   -0.208053   -0.016150    0.051456
    -0.009027   -0.190132    0.333006    0.285698   -0.082711   -0.044672
    -0.102246   -0.250819    0.000000   -0.233566   -0.000000   -0.008040
    -0.000000    0.000000   -0.026549    0.000000   -0.140695   -0.000000
     0.024558    0.387353   -0.000000    0.278985    0.000000    0.100311


    -0.085903    0.191541    0.170922   -0.258959    0.076681   -0.058475
     0.146352    0.088387    0.120961    0.209572    0.249483    0.098151
    -0.061753   -0.009760   -0.017957   -0.235173   -0.135878   -0.348951
    -0.085903   -0.191541   -0.170922    0.258959    0.076681   -0.058475
    -0.146352    0.088387    0.120961    0.209572   -0.249483   -0.098151
    -0.061753    0.009760    0.017957    0.235173   -0.135878   -0.348951
     0.178277    0.000000    0.000000    0.000000   -0.354741    0.116683
    -0.000000   -0.172038   -0.225453   -0.192888   -0.000000   -0.000000
    -0.072698   -0.000000   -0.000000   -0.000000    0.266180   -0.348206
     0.085903   -0.191541    0.170922   -0.258959   -0.076681   -0.058475
     0.146352    0.088387   -0.120961   -0.209572    0.249483   -0.098151
    -0.061753   -0.009760    0.017957    0.235173   -0.135878    0.348951
     0.085903    0.191541   -0.170922    0.258959   -0.076681   -0.058475
    -0.146352    0.088387   -0.120961   -0.209572   -0.249483    0.098151
    -0.061753    0.009760   -0.017957   -0.235173   -0.135878    0.348951
    -0.178277   -0.000000   -0.000000   -0.000000    0.354741    0.116683
    -0.000000   -0.172038    0.225453    0.192888    0.000000    0.000000
    -0.072698   -0.000000   -0.000000   -0.000000    0.266180    0.348206
    -0.135543   -0.314416   -0.297793    0.085625   -0.228320   -0.087163
     0.250954   -0.180270   -0.161984    0.155030   -0.058075    0.152829
     0.227272    0.003839   -0.002578   -0.070843   -0.028890    0.031530
    -0.135543    0.314416    0.297793   -0.085625   -0.228320   -0.087163
    -0.250954   -0.180270   -0.161984    0.155030    0.058075   -0.152829
     0.227272   -0.003839    0.002578    0.070843   -0.028890    0.031530
     0.286716    0.000000   -0.000000    0.000000   -0.107385    0.175249
    -0.000000    0.344200    0.361914    0.239690    0.000000    0.000000
     0.222482    0.000000   -0.000000   -0.000000    0.077019    0.029828
     0.135543    0.314416   -0.297793    0.085625    0.228320   -0.087163
     0.250954   -0.180270    0.161984   -0.155030   -0.058075   -0.152829
     0.227272    0.003839    0.002578    0.070843   -0.028890   -0.031530
     0.135543   -0.314416    0.297793   -0.085625    0.228320   -0.087163
    -0.250954   -0.180270    0.161984   -0.155030    0.058075    0.152829
     0.227272   -0.003839   -0.002578   -0.070843   -0.028890   -0.031530
    -0.286716   -0.000000    0.000000   -0.000000    0.107385    0.175249
    -0.000000    0.344200   -0.361914   -0.239690   -0.000000   -0.000000
     0.222482    0.000000   -0.000000   -0.000000    0.077019   -0.029828


    -0.048198    0.099401   -0.086177   -0.038362   -0.186577   -0.177446
     0.104178   -0.168300   -0.038452   -0.042664    0.325199    0.313173
     0.100928   -0.179475    0.211515   -0.369498    0.103617    0.051840
    -0.048198   -0.099401   -0.086177    0.038362   -0.186577   -0.177446
    -0.104178   -0.168300    0.038452   -0.042664   -0.325199   -0.313173
     0.100928    0.179475    0.211515    0.369498    0.103617    0.051840
    -0.235384    0.000000   -0.020178    0.000000    0.373214    0.352543
    -0.000000    0.007763    0.000000   -0.105725   -0.000000   -0.000000
    -0.202652    0.000000   -0.424008   -0.000000    0.103323    0.052598
     0.048198    0.099401   -0.086177    0.038362   -0.186577    0.177446
     0.104178    0.168300    0.038452   -0.042664   -0.325199    0.313173
     0.100928    0.179475   -0.211515   -0.369498   -0.103617    0.051840
     0.048198   -0.099401   -0.086177   -0.038362   -0.186577    0.177446
    -0.104178    0.168300   -0.038452   -0.042664    0.325199   -0.313173
     0.100928   -0.179475   -0.211515    0.369498   -0.103617    0.051840
     0.235384   -0.000000   -0.020178   -0.000000    0.373214   -0.352543
     0.000000   -0.007763    0.000000   -0.105725    0.000000   -0.000000
    -0.202652    0.000000    0.424008    0.000000   -0.103323    0.052598
     0.136972   -0.102157    0.185242   -0.060809    0.008579    0.029903
    -0.105580    0.263948   -0.062463    0.256938   -0.015735   -0.054399
    -0.178757    0.310466   -0.091116    0.155912   -0.125012   -0.181079
     0.136972    0.102157    0.185242    0.060809    0.008579    0.029903
     0.105580    0.263948    0.062463    0.256938    0.015735    0.054399
    -0.178757   -0.310466   -0.091116   -0.155912   -0.125012   -0.181079
     0.321385   -0.000000    0.293869    0.000000   -0.017365   -0.061584
     0.000000    0.078218   -0.000000    0.145372   -0.000000    0.000000
     0.360261   -0.000000    0.182008    0.000000   -0.123418   -0.177102
    -0.136972   -0.102157    0.185242    0.060809    0.008579   -0.029903
    -0.105580   -0.263948    0.062463    0.256938    0.015735   -0.054399
    -0.178757   -0.310466    0.091116    0.155912    0.125012   -0.181079
    -0.136972    0.102157    0.185242   -0.060809    0.008579   -0.029903
     0.105580   -0.263948   -0.062463    0.256938   -0.015735    0.054399
    -0.178757    0.310466    0.091116   -0.155912    0.125012   -0.181079
    -0.321385    0.000000    0.293869    0.000000   -0.017365    0.061584
[...]
     0.174368    0.103470   -0.174744    0.101991   -0.141530   -0.139605
     0.304281    0.176596   -0.302315    0.178505   -0.245619   -0.242189
    -0.326432   -0.190466    0.326100   -0.192015    0.263870    0.261448
    -0.174368    0.103470    0.174744    0.101991   -0.141530   -0.139605
     0.304281   -0.176596   -0.302315   -0.178505    0.245619    0.242189
     0.326432   -0.190466   -0.326100   -0.192015    0.263870    0.261448
    -0.000000    0.402286    0.000000    0.398669    0.287826    0.287741
     0.001628    0.000000    0.000860   -0.000000    0.000000    0.000000
    -0.000000    0.375447    0.000000    0.373357    0.268614    0.269844

 Vibrational Frequencies in atomic units
    -0.0000000000   -0.0000000000   -0.0000000000   -0.0000000000    0.0000000000    0.0000000000
     0.0145220276    0.0160290834    0.0160700469    0.0217834011    0.0219152102    0.0232216100
     0.0233887907    0.0254299773    0.0257398310    0.0314486089    0.0318391638    0.0321351900
     0.0332822559    0.0335995770    0.0339870391    0.0365248851    0.0367927929    0.0459251439
     0.0472086339    0.0473501467    0.0557678866    0.0561796977    0.0627424778    0.0658601369
     0.3677768476    0.3678074166    0.3710603767    0.3710745973    0.3728331905    0.3742426849
 **********************************************************************
 **                                                                  **
 **                       VIBRATIONAL ANALYSIS                       **
 **                       --------------------                       **
 **                                                                  **
 **        VIBRATIONAL FREQUENCIES (CM**-1) AND NORMAL MODES         **
 **     FORCE CONSTANTS (mDYN/ANGSTROM) AND REDUCED MASSES (AMU)     **
 **                  INFRARED INTENSITIES (KM/MOL)                   **
 **                                                                  **
 **********************************************************************


 Mode:                 1                      2                      3
 Frequency:       619.47                 650.82                 651.65
 Force Cnst:      0.6732                 0.3838                 0.3980
 Red. Mass:       2.9776                 1.5380                 1.5907
 IR Active:          YES                    YES                    YES
 IR Intens:        0.000                  0.000                  0.000
 Raman Active:       YES                    YES                    YES
               X      Y      Z        X      Y      Z        X      Y      Z
 C          0.148  0.093 -0.005    0.014 -0.073  0.063   -0.072  0.006 -0.039
 C         -0.148  0.093  0.005   -0.014 -0.073 -0.063   -0.072 -0.006 -0.039
 C          0.000 -0.169 -0.000   -0.000 -0.070  0.000   -0.083  0.000  0.078
 C          0.148 -0.093  0.005    0.014  0.073 -0.063    0.072  0.006 -0.039
 C         -0.148 -0.093 -0.005   -0.014  0.073  0.063    0.072 -0.006 -0.039
 C         -0.000  0.169 -0.000    0.000  0.070  0.000    0.083 -0.000  0.078
 H          0.296  0.184  0.000    0.313  0.021 -0.004    0.365  0.301 -0.002
 H         -0.296  0.184 -0.000   -0.313  0.021  0.004    0.365 -0.301 -0.002
 H          0.000 -0.409  0.000   -0.000  0.528  0.000   -0.162 -0.000  0.002
 H          0.296 -0.184 -0.000    0.313 -0.021  0.004   -0.365  0.301 -0.002
 H         -0.296 -0.184  0.000   -0.313 -0.021 -0.004   -0.365 -0.301 -0.002
 H         -0.000  0.409 -0.000    0.000 -0.528 -0.000    0.162  0.000  0.002
 TransDip   0.000  0.000  0.000    0.000  0.000 -0.000    0.000 -0.000 -0.000

 Mode:                 4                      5                      6
 Frequency:       758.70                 760.99                 783.34
 Force Cnst:      1.1247                 1.0430                 0.4018
 Red. Mass:       3.3162                 3.0569                 1.1114
 IR Active:          YES                    YES                    YES
 IR Intens:        0.000                  0.000                 38.388
 Raman Active:       YES                    YES                    YES
               X      Y      Z        X      Y      Z        X      Y      Z
 C         -0.119 -0.018  0.114    0.146  0.110  0.064    0.027 -0.033  0.022
 C          0.119 -0.018 -0.114    0.146 -0.110  0.064   -0.027 -0.033 -0.022
 C         -0.000 -0.223 -0.000   -0.048  0.000 -0.126   -0.000  0.011  0.000
 C         -0.119  0.018 -0.114   -0.146  0.110  0.064   -0.027 -0.033  0.022
 C          0.119  0.018  0.114   -0.146 -0.110  0.064    0.027 -0.033 -0.022
 C          0.000  0.223 -0.000    0.048 -0.000 -0.126   -0.000  0.011 -0.000
 H         -0.251  0.055  0.252    0.246  0.250  0.139    0.291  0.048 -0.042
 H          0.251  0.055 -0.252    0.246 -0.250  0.139   -0.291  0.048  0.042
 H         -0.000 -0.370 -0.000   -0.200  0.000 -0.286   -0.000  0.563  0.000
 H         -0.251 -0.055 -0.252   -0.246  0.250  0.139   -0.291  0.048 -0.042
 H          0.251 -0.055  0.252   -0.246 -0.250  0.139    0.291  0.048  0.042
 H          0.000  0.370 -0.000    0.200 -0.000 -0.286   -0.000  0.563 -0.000
 TransDip   0.000  0.000  0.000   -0.000  0.000 -0.000    0.000  0.198 -0.000

 Mode:                 7                      8                      9
 Frequency:       786.16                 819.74                 824.72
 Force Cnst:      0.4118                 0.6033                 0.6166
 Red. Mass:       1.1308                 1.5237                 1.5385
 IR Active:          YES                    YES                    YES
 IR Intens:       40.274                  3.754                  5.533
 Raman Active:       YES                    YES                    YES
               X      Y      Z        X      Y      Z        X      Y      Z
 C         -0.004  0.027 -0.017    0.014  0.004  0.062    0.001  0.013 -0.109
 C         -0.004 -0.027 -0.017    0.014 -0.004  0.062   -0.001  0.013  0.109
 C         -0.050 -0.000  0.032    0.008  0.000 -0.124   -0.000  0.016  0.000
 C         -0.004 -0.027  0.017    0.014 -0.004 -0.062   -0.001  0.013 -0.109
 C         -0.004  0.027  0.017    0.014  0.004 -0.062    0.001  0.013  0.109
 C         -0.050 -0.000 -0.032    0.008  0.000  0.124   -0.000  0.016 -0.000
 H          0.397  0.288  0.010   -0.066  0.135  0.234    0.121 -0.231 -0.411
 H          0.397 -0.288  0.010   -0.066 -0.135  0.234   -0.121 -0.231  0.411
 H         -0.108 -0.000 -0.026   -0.308  0.000 -0.476    0.000 -0.033  0.000
 H          0.397 -0.288 -0.010   -0.066 -0.135 -0.234   -0.121 -0.231 -0.411
 H          0.397  0.288 -0.010   -0.066  0.135 -0.234    0.121 -0.231  0.411
 H         -0.108 -0.000  0.026   -0.308  0.000  0.476    0.000 -0.033 -0.000
 TransDip   0.203 -0.000 -0.000   -0.062 -0.000  0.000    0.000 -0.075  0.000

 Mode:                10                     11                     12
 Frequency:       911.60                 917.25                 921.50
 Force Cnst:      0.5929                 3.3282                 3.3488
 Red. Mass:       1.2110                 6.7140                 6.6934
 IR Active:          YES                    YES                    YES
 IR Intens:        0.000                  2.084                  1.948
 Raman Active:       YES                    YES                    YES
               X      Y      Z        X      Y      Z        X      Y      Z
 C          0.010 -0.016 -0.052    0.243 -0.138 -0.053   -0.158 -0.251 -0.031
 C          0.010  0.016 -0.052   -0.243 -0.138  0.053   -0.158  0.251 -0.031
 C         -0.020 -0.000 -0.052   -0.000  0.313 -0.000    0.277  0.000  0.063
 C          0.010  0.016  0.052   -0.243 -0.138 -0.053   -0.158  0.251  0.031
 C          0.010 -0.016  0.052    0.243 -0.138  0.053   -0.158 -0.251  0.031
 C         -0.020 -0.000  0.052   -0.000  0.313  0.000    0.277  0.000 -0.063
 H          0.125 -0.228 -0.313   -0.084 -0.042  0.213    0.237  0.133  0.115
 H          0.125  0.228 -0.313    0.084 -0.042 -0.213    0.237 -0.133  0.115
 H         -0.256  0.000 -0.306    0.000 -0.363  0.000   -0.021 -0.000 -0.259
 H          0.125  0.228  0.313    0.084 -0.042  0.213    0.237 -0.133 -0.115
 H          0.125 -0.228  0.313   -0.084 -0.042 -0.213    0.237  0.133 -0.115
 H         -0.256  0.000  0.306   -0.000 -0.363  0.000   -0.021 -0.000  0.259
 TransDip  -0.001 -0.000  0.000    0.000  0.046  0.000   -0.045  0.000 -0.000

 Mode:                13                     14                     15
 Frequency:       937.80                 942.26                 947.68
 Force Cnst:      0.6427                 0.6739                 0.7158
 Red. Mass:       1.2403                 1.2882                 1.3527
 IR Active:          YES                    YES                    YES
 IR Intens:        3.006                  0.001                  0.000
 Raman Active:       YES                    YES                    YES
               X      Y      Z        X      Y      Z        X      Y      Z
 C         -0.028  0.047 -0.020    0.063  0.029 -0.003    0.057  0.041 -0.006
 C         -0.028 -0.047 -0.020   -0.063  0.029  0.003   -0.057  0.041  0.006
 C          0.057 -0.000 -0.023    0.000 -0.056 -0.000    0.000 -0.076 -0.000
 C          0.028  0.047 -0.020   -0.063  0.029 -0.003    0.057 -0.041  0.006
 C          0.028 -0.047 -0.020    0.063  0.029  0.003   -0.057 -0.041 -0.006
 C         -0.057 -0.000 -0.023   -0.000 -0.056 -0.000   -0.000  0.076 -0.000
 H         -0.150  0.278  0.252   -0.355 -0.204  0.004   -0.345 -0.188 -0.003
 H         -0.150 -0.278  0.252    0.355 -0.204 -0.004    0.345 -0.188  0.003
 H          0.318 -0.000  0.247    0.000  0.389  0.000   -0.000  0.419 -0.000
 H          0.150  0.278  0.252    0.355 -0.204  0.004   -0.345  0.188  0.003
 H          0.150 -0.278  0.252   -0.355 -0.204 -0.004    0.345  0.188 -0.003
 H         -0.318 -0.000  0.247   -0.000  0.389  0.000    0.000 -0.419 -0.000
 TransDip  -0.000 -0.000  0.056    0.000  0.001  0.000   -0.000  0.000 -0.000

 Mode:                16                     17                     18
 Frequency:       982.43                 986.02                1101.62
 Force Cnst:      1.7768                 1.7907                 2.7829
 Red. Mass:       3.1245                 3.1260                 3.8921
 IR Active:          YES                    YES                    YES
 IR Intens:        0.000                  0.002                  0.000
 Raman Active:       YES                    YES                    YES
               X      Y      Z        X      Y      Z        X      Y      Z
 C         -0.132  0.107 -0.120    0.039  0.127 -0.069   -0.033  0.056 -0.199
 C          0.132  0.107  0.120    0.039 -0.127 -0.069   -0.033 -0.056 -0.199
 C          0.000 -0.098 -0.000   -0.181 -0.000  0.136    0.066 -0.000 -0.198
 C         -0.132 -0.107  0.120   -0.039  0.127 -0.069   -0.033 -0.056  0.199
 C          0.132 -0.107 -0.120   -0.039 -0.127 -0.069   -0.033  0.056  0.199
 C         -0.000  0.098 -0.000    0.181  0.000  0.136    0.066  0.000  0.198
 H          0.151  0.273 -0.125   -0.402 -0.102 -0.051   -0.171  0.300  0.062
 H         -0.151  0.273  0.125   -0.402  0.102 -0.051   -0.171 -0.300  0.062
 H          0.000  0.422 -0.000   -0.189  0.000  0.136    0.344  0.000  0.059
 H          0.151 -0.273  0.125    0.402 -0.102 -0.051   -0.171 -0.300 -0.062
 H         -0.151 -0.273 -0.125    0.402  0.102 -0.051   -0.171  0.300 -0.062
 H         -0.000 -0.422 -0.000    0.189 -0.000  0.136    0.344 -0.000 -0.059
 TransDip  -0.000  0.000  0.000   -0.000  0.000  0.001   -0.000  0.000 -0.000

 Mode:                19                     20                     21
 Frequency:      1116.91                1118.58                1213.94
 Force Cnst:      1.0042                 1.0015                 1.8487
 Red. Mass:       1.3663                 1.3585                 2.1292
 IR Active:          YES                    YES                    YES
 IR Intens:        0.000                  0.000                 10.567
 Raman Active:       YES                    YES                    YES
               X      Y      Z        X      Y      Z        X      Y      Z
 C         -0.016  0.035  0.034    0.033 -0.057 -0.060   -0.036 -0.016  0.089
 C         -0.016 -0.035  0.034   -0.033 -0.057  0.060   -0.036  0.016  0.089
 C         -0.079 -0.000 -0.068    0.000  0.003  0.000   -0.008  0.000 -0.179
 C          0.016  0.035  0.034    0.033  0.057  0.060   -0.036  0.016 -0.089
 C          0.016 -0.035  0.034   -0.033  0.057 -0.060   -0.036 -0.016 -0.089
 C          0.079  0.000 -0.068   -0.000 -0.003  0.000   -0.008  0.000  0.179
 H          0.159 -0.123 -0.208   -0.119  0.306  0.360    0.269 -0.091 -0.132
 H          0.159  0.123 -0.208    0.119  0.306 -0.360    0.269  0.091 -0.132
 H          0.374  0.000  0.419   -0.000  0.091 -0.000    0.427 -0.000  0.265
 H         -0.159 -0.123 -0.208   -0.119 -0.306 -0.360    0.269  0.091  0.132
 H         -0.159  0.123 -0.208    0.119 -0.306  0.360    0.269 -0.091  0.132
 H         -0.374 -0.000  0.419    0.000 -0.091 -0.000    0.427 -0.000 -0.265
 TransDip  -0.000  0.000  0.000   -0.000 -0.000 -0.000    0.104 -0.000  0.000

 Mode:                22                     23                     24
 Frequency:      1218.42                1287.62                1319.22
 Force Cnst:      1.8868                 5.7612                 3.6560
 Red. Mass:       2.1571                 5.8978                 3.5655
 IR Active:          YES                    YES                    YES
 IR Intens:       10.320                  0.000                  0.189
 Raman Active:       YES                    YES                    YES
               X      Y      Z        X      Y      Z        X      Y      Z
 C         -0.016 -0.018 -0.157   -0.131  0.228  0.073   -0.097  0.171  0.028
 C          0.016 -0.018  0.157   -0.131 -0.228  0.073   -0.097 -0.171  0.028
 C          0.000 -0.045 -0.000    0.262 -0.000  0.072    0.192 -0.000  0.029
 C          0.016 -0.018 -0.157   -0.131 -0.228 -0.073    0.097  0.171  0.028
 C         -0.016 -0.018  0.157   -0.131  0.228 -0.073    0.097 -0.171  0.028
 C         -0.000 -0.045  0.000    0.262  0.000 -0.072   -0.192 -0.000  0.029
 H         -0.089  0.376  0.228    0.021 -0.038 -0.302    0.056 -0.102 -0.341
 H          0.089  0.376 -0.228    0.021  0.038 -0.302    0.056  0.102 -0.341
 H          0.000  0.213  0.000   -0.042 -0.000 -0.299   -0.116  0.000 -0.333
 H          0.089  0.376  0.228    0.021  0.038  0.302   -0.056 -0.102 -0.341
 H         -0.089  0.376 -0.228    0.021 -0.038  0.302   -0.056  0.102 -0.341
 H          0.000  0.213 -0.000   -0.042 -0.000  0.299    0.116 -0.000 -0.333
 TransDip   0.000  0.103  0.000    0.000 -0.000  0.000   -0.000 -0.000 -0.014

 Mode:                25                     26                     27
 Frequency:      3117.44                3117.57                3131.32
 Force Cnst:      6.2382                 6.2383                 6.3259
 Red. Mass:       1.0895                 1.0894                 1.0950
 IR Active:          YES                    YES                    YES
 IR Intens:        0.000                  0.003                 29.785
 Raman Active:       YES                    YES                    YES
               X      Y      Z        X      Y      Z        X      Y      Z
 C         -0.016  0.027 -0.029    0.009 -0.016  0.017   -0.016  0.027 -0.032
 C          0.016  0.027  0.029    0.009  0.016  0.017    0.016  0.027  0.032
 C         -0.000 -0.000  0.000    0.036 -0.000 -0.034   -0.000 -0.001  0.000
 C         -0.016 -0.027  0.029   -0.009 -0.016  0.017    0.016  0.027 -0.032
 C          0.016 -0.027 -0.029   -0.009  0.016  0.017   -0.016  0.027  0.032
 C          0.000  0.000  0.000   -0.036  0.000 -0.034   -0.000 -0.001 -0.000
 H          0.181 -0.316  0.339   -0.108  0.184 -0.198    0.182 -0.315  0.340
 H         -0.181 -0.316 -0.339   -0.108 -0.184 -0.198   -0.182 -0.315 -0.340
 H          0.000 -0.002 -0.000   -0.418 -0.000  0.390    0.000  0.001 -0.000
 H          0.181  0.316 -0.339    0.108  0.184 -0.198   -0.182 -0.315  0.340
 H         -0.181  0.316  0.339    0.108 -0.184 -0.198    0.182 -0.315 -0.340
 H         -0.000  0.002 -0.000    0.418  0.000  0.390    0.000  0.001  0.000
 TransDip   0.000 -0.000 -0.000   -0.000 -0.000  0.002   -0.000  0.175 -0.000

 Mode:                28                     29                     30
 Frequency:      3131.38                3138.79                3144.72
 Force Cnst:      6.3254                 6.3761                 6.4825
 Red. Mass:       1.0949                 1.0984                 1.1126
 IR Active:          YES                    YES                    YES
 IR Intens:       29.949                 55.783                  0.006
 Raman Active:       YES                    YES                    YES
               X      Y      Z        X      Y      Z        X      Y      Z
 C         -0.009  0.016 -0.019   -0.014  0.025 -0.023    0.015 -0.026  0.026
 C         -0.009 -0.016 -0.019   -0.014 -0.025 -0.023    0.015  0.026  0.026
 C         -0.035  0.000  0.036    0.029  0.000 -0.024   -0.030 -0.000  0.027
 C         -0.009 -0.016  0.019    0.014  0.025 -0.023    0.015  0.026 -0.026
 C         -0.009  0.016  0.019    0.014 -0.025 -0.023    0.015 -0.026 -0.026
 C         -0.035  0.000 -0.036   -0.029 -0.000 -0.024   -0.030 -0.000 -0.027
 H          0.106 -0.186  0.200    0.148 -0.256  0.275   -0.147  0.254 -0.275
 H          0.106  0.186  0.200    0.148  0.256  0.275   -0.147 -0.254 -0.275
 H          0.416 -0.000 -0.389   -0.300  0.000  0.280    0.302  0.000 -0.284
 H          0.106  0.186 -0.200   -0.148 -0.256  0.275   -0.147 -0.254  0.275
 H          0.106 -0.186 -0.200   -0.148  0.256  0.275   -0.147  0.254  0.275
 H          0.416 -0.000  0.389    0.300  0.000  0.280    0.302  0.000  0.284
 TransDip  -0.175 -0.000  0.000   -0.000 -0.000 -0.239   -0.003  0.000  0.000

 STANDARD THERMODYNAMIC QUANTITIES AT   298.15 K  AND     1.00 ATM

   This Molecule has  0 Imaginary Frequencies
   Zero point vibrational energy:       59.127 kcal/mol

   Atom    1 Element C  Has Mass   12.00000
   Atom    2 Element C  Has Mass   12.00000
   Atom    3 Element C  Has Mass   12.00000
   Atom    4 Element C  Has Mass   12.00000
   Atom    5 Element C  Has Mass   12.00000
   Atom    6 Element C  Has Mass   12.00000
   Atom    7 Element H  Has Mass    1.00783
   Atom    8 Element H  Has Mass    1.00783
   Atom    9 Element H  Has Mass    1.00783
   Atom   10 Element H  Has Mass    1.00783
   Atom   11 Element H  Has Mass    1.00783
   Atom   12 Element H  Has Mass    1.00783
   Molecular Mass:    78.046980 amu
   Principal axes and moments of inertia in amu*Bohr^2:
                             1           2           3
    Eigenvalues --      262.43811   338.47849   338.61199
          X               0.00000     0.00000     1.00000
          Y               0.00000     1.00000     0.00000
          Z               1.00000     0.00000     0.00000
   Rotational Symmetry Number is   1
   The Molecule is an Asymmetric Top
   Translational Enthalpy:        0.889 kcal/mol
   Rotational Enthalpy:           0.889 kcal/mol
   Vibrational Enthalpy:         60.006 kcal/mol
   gas constant (RT):             0.592 kcal/mol
   Translational Entropy:        38.979  cal/mol.K
   Rotational Entropy:           24.912  cal/mol.K
   Vibrational Entropy:           3.715  cal/mol.K

   Total Enthalpy:               62.376 kcal/mol
   Total Entropy:                67.606  cal/mol.K
 Total job time:  25.35s(wall), 100.40s(cpu) 
 Thu Jul 27 11:55:52 2023

        *************************************************************
        *                                                           *
        *  Thank you very much for using Q-Chem.  Have a nice day.  *
        *                                                           *
        *************************************************************


