                  Welcome to Q-Chem
     A Quantum Leap Into The Future Of Chemistry


 Q-Chem 6.0 (devel), Q-Chem, Inc., Pleasanton, CA (2022)

 E. Epifanovsky,  A. T. B. Gilbert,  Xintian Feng,  Joonho Lee,  Yuezhi Mao,  
 N. Mardirossian,  P. Pokhilko,  A. White,  M. Wormit,  M. P. Coons,  
 A. L. Dempwolff,  Zhengting Gan,  D. Hait,  P. R. Horn,  L. D. Jacobson,  
 I. Kaliman,  J. Kussmann,  A. W. Lange,  Ka Un Lao,  D. S. Levine,  Jie Liu,  
 S. C. McKenzie,  A. F. Morrison,  K. Nanda,  F. Plasser,  D. R. Rehn,  
 M. L. Vidal,  Zhi-Qiang You,  Ying Zhu,  B. Alam,  B. Albrecht,  
 A. Aldossary,  E. Alguire,  J. H. Andersen,  V. Athavale,  D. Barton,  
 K. Begam,  A. Behn,  N. Bellonzi,  Y. A. Bernard,  E. J. Berquist,  
 H. Burton,  A. Carreras,  K. Carter-Fenk,  Romit Chakraborty,  
 Chandrima Chakravarty,  Junhan Chen,  A. D. Chien,  K. D. Closser,  
 V. Cofer-Shabica,  L. Cunha,  S. Dasgupta,  Jia Deng,  M. de Wergifosse,  
 M. Diedenhofen,  Hainam Do,  S. Ehlert,  Po-Tung Fang,  S. Fatehi,  
 Qingguo Feng,  T. Friedhoff,  B. Ganoe,  J. Gayvert,  Qinghui Ge,  
 G. Gidofalvi,  M. Goldey,  J. Gomes,  C. Gonzalez-Espinoza,  S. Gulania,  
 A. Gunina,  J. A. Gyamfi,  M. W. D. Hanson-Heine,  P. H. P. Harbach,  
 A. W. Hauser,  M. F. Herbst,  M. Hernandez Vera,  M. Hodecker,  
 Z. C. Holden,  S. Houck,  Xunkun Huang,  Kerwin Hui,  B. C. Huynh,  
 K. Ikeda,  M. Ivanov,  Hyunjun Ji,  Zuxin Jin,  Hanjie Jiang,  B. Kaduk,  
 S. Kaehler,  R. Kang,  K. Khistyaev,  Jaehoon Kim,  Yongbin Kim,  
 P. Klunzinger,  Z. Koczor-Benda,  Joong Hoon Koh,  D. Kosenkov,  
 Saikiran Kotaru,  L. Koulias,  T. Kowalczyk,  C. M. Krauter,  K. Kue,  
 A. Kunitsa,  T. Kus,  A. Landau,  K. V. Lawler,  D. Lefrancois,  S. Lehtola,  
 Rain Li,  Shaozhi Li,  Yi-Pei Li,  Jiashu Liang,  M. Liebenthal,  
 Hung-Hsuan Lin,  You-Sheng Lin,  Fenglai Liu,  Kuan-Yu Liu,  
 M. Loipersberger,  A. Luenser,  C. Malbon,  A. Manjanath,  P. Manohar,  
 E. Mansoor,  S. F. Manzer,  Shan-Ping Mao,  A. V. Marenich,  T. Markovich,  
 S. Mason,  F. Matz,  S. A. Maurer,  P. F. McLaughlin,  M. F. S. J. Menger,  
 J.-M. Mewes,  S. A. Mewes,  P. Morgante,  Mohammad Mostafanejad,  
 J. W. Mullinax,  K. J. Oosterbaan,  G. Paran,  V. Parravicini,  
 Alexander C. Paul,  Suranjan K. Paul,  F. Pavosevic,  Zheng Pei,  S. Prager,  
 E. I. Proynov,  E. Ramos,  B. Rana,  A. E. Rask,  A. Rettig,  R. M. Richard,  
 F. Rob,  E. Rossomme,  T. Scheele,  M. Scheurer,  M. Schneider,  
 P. E. Schneider,  N. Sergueev,  S. M. Sharada,  Hengyuan Shen,  
 W. Skomorowski,  D. W. Small,  C. J. Stein,  Yingli Su,  Yu-Chuan Su,  
 E. J. Sundstrom,  Zhen Tao,  J. Thirman,  Hung-Yi Tsai,  T. Tsuchimochi,  
 N. M. Tubman,  C. Utku,  S. P. Veccham,  O. Vydrov,  J. Wenzel,  
 Jonathan Wong,  J. Witte,  A. Yamada,  Chou-Hsun Yang,  Kun Yao,  
 S. Yeganeh,  S. R. Yost,  A. Zech,  F. Zeller,  Igor Ying Zhang,  
 Xing Zhang,  Yu Zhang,  D. Zuev,  A. Aspuru-Guzik,  A. T. Bell,  
 N. A. Besley,  K. B. Bravaya,  B. R. Brooks,  D. Casanova,  Jeng-Da Chai,  
 Hsing-Ta Chen,  S. Coriani,  C. J. Cramer,  A. E. DePrince, III,  
 R. A. DiStasio Jr.,  A. Dreuw,  B. D. Dunietz,  T. R. Furlani,  
 W. A. Goddard III,  S. Grimme,  S. Hammes-Schiffer,  T. Head-Gordon,  
 W. J. Hehre,  Chao-Ping Hsu,  T.-C. Jagau,  Yousung Jung,  A. Klamt,  
 Jing Kong,  D. S. Lambrecht,  Xiangyuan Li,  WanZhen Liang,  N. J. Mayhall,  
 C. W. McCurdy,  J. B. Neaton,  T. Neudecker,  C. Ochsenfeld,  
 J. A. Parkhill,  R. Peverati,  V. A. Rassolov,  Haisheng Ren,  Yihan Shao,  
 L. V. Slipchenko,  R. P. Steele,  J. E. Subotnik,  A. J. W. Thom,  
 A. Tkatchenko,  D. G. Truhlar,  T. Van Voorhis,  Fan Wang,  
 T. A. Wesolowski,  K. B. Whaley,  H. L. Woodcock III,  P. M. Zimmerman,  
 S. Faraji,  P. M. W. Gill,  M. Head-Gordon,  J. M. Herbert,  A. I. Krylov

 Contributors to earlier versions of Q-Chem not listed above: 
 R. D. Adamson,  B. Austin,  R. Baer,  J. Baker,  G. J. O. Beran,  
 K. Brandhorst,  S. T. Brown,  E. F. C. Byrd,  Arup K. Chakraborty,  
 G. K. L. Chan,  Chun-Min Chang,  Yunqing Chen,  C.-L. Cheng,  
 Siu Hung Chien,  D. M. Chipman,  D. L. Crittenden,  H. Dachsel,  
 R. J. Doerksen,  A. D. Dutoi,  R. G. Edgar,  J. Fosso-Tande,  
 L. Fusti-Molnar,  D. Ghosh,  A. Ghysels,  A. Golubeva-Zadorozhnaya,  
 J. Gonthier,  M. S. Gordon,  S. R. Gwaltney,  G. Hawkins,  J. E. Herr,  
 A. Heyden,  S. Hirata,  E. G. Hohenstein,  G. Kedziora,  F. J. Keil,  
 C. Kelley,  Jihan Kim,  R. A. King,  R. Z. Khaliullin,  P. P. Korambath,  
 W. Kurlancheek,  A. Laurent,  A. M. Lee,  M. S. Lee,  S. V. Levchenko,  
 Ching Yeh Lin,  D. Liotard,  E. Livshits,  R. C. Lochan,  I. Lotan,  
 L. A. Martinez-Martinez,  P. E. Maslen,  N. Nair,  D. P. O'Neill,  
 D. Neuhauser,  E. Neuscamman,  C. M. Oana,  R. Olivares-Amaya,  R. Olson,  
 T. M. Perrine,  B. Peters,  P. A. Pieniazek,  A. Prociuk,  Y. M. Rhee,  
 J. Ritchie,  M. A. Rohrdanz,  E. Rosta,  N. J. Russ,  H. F. Schaefer III,  
 M. W. Schmidt,  N. E. Schultz,  S. Sharma,  N. Shenvi,  C. D. Sherrill,  
 A. C. Simmonett,  A. Sodt,  T. Stein,  D. Stuck,  K. S. Thanthiriwatte,  
 V. Vanovschi,  L. Vogt,  Tao Wang,  A. Warshel,  M. A. Watson,  
 C. F. Williams,  Q. Wu,  X. Xu,  Jun Yang,  W. Zhang,  Yan Zhao

   Please cite Q-Chem as follows:
  "Software for the frontiers of quantum chemistry:
   An overview of developments in the Q-Chem 5 package"
   J. Chem. Phys. 155, 084801 (2021)
   https://doi.org/10.1063/5.0055522 (open access)

 Q-Chem 6.0.0 for Intel X86 EM64T Linux

 Parts of Q-Chem use Armadillo 9.900.5 (Nocturnal Misbehaviour).
 http://arma.sourceforge.net/

 Q-Chem begins on Thu Jul 27 11:56:10 2023  

 Host: 
0

     Scratch files written to /mnt/scratch/hwang/qchem12952//
 Processing $rem in /opt/qchem-6.0.0/config/preferences:
 Processing $rem in /home/hwang/.qchemrc:

 Checking the input file for inconsistencies... 	...done.

--------------------------------------------------------------
User input:
--------------------------------------------------------------
$comment
   ASE generated input file
$end

$rem
   METHOD                      PBE
   BASIS                       CC-PVDZ
   JOBTYPE                     OPT
   DFT_D                       D3_BJ
   GEOM_OPT_MAX_CYCLES         150
   USE_LIBQINTS                1
   MAX_SCF_CYCLES              150
   SYM_IGNORE                  TRUE
$end

$molecule
   0 1
   C  0.397730  -0.688890  0.838210
   C  0.397730  0.688890  0.838210
   C  -0.795460  0.000000  0.838210
   C  0.397730  0.688890  -0.838210
   C  0.397730  -0.688890  -0.838210
   C  -0.795460  0.000000  -0.838210
   H  0.727930  -1.260800  1.633750
   H  0.727930  1.260800  1.633750
   H  -1.455850  0.000000  1.633750
   H  0.727930  1.260800  -1.633750
   H  0.727930  -1.260800  -1.633750
   H  -1.455850  0.000000  -1.633750
$end

--------------------------------------------------------------
 Adding empirical dispersion correction 
 ----------------------------------------------------------------
 Doing -D3(BJ) with
 s6  =   1.00000
 s8  =   0.78750
 a1  =   0.42890
 a2  =   4.44070
 -D3 energy without 3body term =     -0.0097177391 hartrees
 ----------------------------------------------------------------
             Standard Nuclear Orientation (Angstroms)
    I     Atom           X                Y                Z
 ----------------------------------------------------------------
    1      C       0.3977300000    -0.6888900000     0.8382100000
    2      C       0.3977300000     0.6888900000     0.8382100000
    3      C      -0.7954600000     0.0000000000     0.8382100000
    4      C       0.3977300000     0.6888900000    -0.8382100000
    5      C       0.3977300000    -0.6888900000    -0.8382100000
    6      C      -0.7954600000     0.0000000000    -0.8382100000
    7      H       0.7279300000    -1.2608000000     1.6337500000
    8      H       0.7279300000     1.2608000000     1.6337500000
    9      H      -1.4558500000     0.0000000000     1.6337500000
   10      H       0.7279300000     1.2608000000    -1.6337500000
   11      H       0.7279300000    -1.2608000000    -1.6337500000
   12      H      -1.4558500000     0.0000000000    -1.6337500000
 ----------------------------------------------------------------
 Nuclear Repulsion Energy =         228.01422645 hartrees
 There are       21 alpha and       21 beta electrons
 Requested basis set is cc-pVDZ
 There are 54 shells and 114 basis functions

 Total QAlloc Memory Limit   2000 MB
 Mega-Array Size       188 MB
 MEM_STATIC part       192 MB

 -----------------------------------------------------------------------
                STARTING GEOMETRY OPTIMIZER USING LIBOPT3
                by Peter F. McLaughlin, Yu Zhang, Evgeny Epifanovsky
 -----------------------------------------------------------------------

              Initial Energy and Gradient Calculation
  Checking Topology for Ill-Behaving Coordinates
  Done Checking Topology
 Adding empirical dispersion correction 
 ----------------------------------------------------------------
 Doing -D3(BJ) with
 s6  =   1.00000
 s8  =   0.78750
 a1  =   0.42890
 a2  =   4.44070
 -D3 energy without 3body term =     -0.0097177391 hartrees
 ----------------------------------------------------------------
             Standard Nuclear Orientation (Angstroms)
    I     Atom           X                Y                Z
 ----------------------------------------------------------------
    1      C       0.3977300000    -0.6888900000     0.8382100000
    2      C       0.3977300000     0.6888900000     0.8382100000
    3      C      -0.7954600000     0.0000000000     0.8382100000
    4      C       0.3977300000     0.6888900000    -0.8382100000
    5      C       0.3977300000    -0.6888900000    -0.8382100000
    6      C      -0.7954600000     0.0000000000    -0.8382100000
    7      H       0.7279300000    -1.2608000000     1.6337500000
    8      H       0.7279300000     1.2608000000     1.6337500000
    9      H      -1.4558500000     0.0000000000     1.6337500000
   10      H       0.7279300000     1.2608000000    -1.6337500000
   11      H       0.7279300000    -1.2608000000    -1.6337500000
   12      H      -1.4558500000     0.0000000000    -1.6337500000
 ----------------------------------------------------------------
 Nuclear Repulsion Energy =         228.01422645 hartrees
 There are       21 alpha and       21 beta electrons

                       Distance Matrix (Angstroms)
             C (  1)   C (  2)   C (  3)   C (  4)   C (  5)   C (  6)
   C (  2)  1.377780
   C (  3)  1.377778  1.377778
   C (  4)  2.169945  1.676420  2.169944
   C (  5)  1.676420  2.169945  2.169944  1.377780
   C (  6)  2.169944  2.169944  1.676420  1.377778  1.377778
   H (  7)  1.033923  2.131480  2.131482  3.165582  2.558652  3.165584
   H (  8)  2.131480  1.033923  2.131482  2.558652  3.165582  3.165584
   H (  9)  2.131481  2.131481  1.033924  3.165583  3.165583  2.558652
   H ( 10)  3.165582  2.558652  3.165584  1.033923  2.131480  2.131482
   H ( 11)  2.558652  3.165582  3.165584  2.131480  1.033923  2.131482
   H ( 12)  3.165583  3.165583  2.558652  2.131481  2.131481  1.033924
             H (  7)   H (  8)   H (  9)   H ( 10)   H ( 11)
   H (  8)  2.521600
   H (  9)  2.521609  2.521609
   H ( 10)  4.127351  3.267500  4.127356
   H ( 11)  3.267500  4.127351  4.127356  2.521600
   H ( 12)  4.127356  4.127356  3.267500  2.521609  2.521609

 Requested basis set is cc-pVDZ
 There are 54 shells and 114 basis functions
 A cutoff of  1.0D-12 yielded   1485 shell pairs
 There are      6669 function pairs (      7404 Cartesian)
 Smallest overlap matrix eigenvalue = 6.11E-04

 Scale SEOQF with 1.000000e+00/1.000000e+00/1.000000e-01

 Standard Electronic Orientation quadrupole field applied
 Nucleus-field energy     =     0.0000000146 hartrees
 Guess from superposition of atomic densities
 Warning:  Energy on first SCF cycle will be non-variational
 SAD guess density has 42.000000 electrons

 -----------------------------------------------------------------------
  General SCF calculation program by
  Eric Jon Sundstrom, Paul Horn, Yuezhi Mao, Dmitri Zuev, Alec White,
  David Stuck, Shaama M.S., Shane Yost, Joonho Lee, David Small,
  Daniel Levine, Susi Lehtola, Hugh Burton, Evgeny Epifanovsky,
  Bang C. Huynh
 -----------------------------------------------------------------------
 Exchange:  PBE      Correlation:  PBE
 Using SG-1 standard quadrature grid
 Dispersion:   Grimme D3
 A restricted SCF calculation will be
 performed using DIIS
 SCF converges when DIIS error is below 1.0e-08
 ---------------------------------------
  Cycle       Energy         DIIS error
 ---------------------------------------
    1    -233.8423448530      9.01e-02  
    2    -231.4531967105      1.07e-02  
    3    -231.1569510207      1.77e-02  
    4    -231.6625282009      9.81e-04  
    5    -231.6639150839      2.46e-04  
    6    -231.6640078319      3.60e-05  
    7    -231.6640100000      5.24e-06  
    8    -231.6640100541      3.15e-07  
    9    -231.6640100543      1.31e-07  
   10    -231.6640100543      3.82e-08  
   11    -231.6640100543      8.83e-10  Convergence criterion met
 ---------------------------------------
 SCF time:   CPU 4.91s  wall 2.00s 
 SCF   energy in the final basis set =     -231.6640100543
 Total energy in the final basis set =     -231.6640100543

 --------------------------------------------------------------

                    Orbital Energies (a.u.)
 --------------------------------------------------------------

 Alpha MOs
 -- Occupied --
 -9.8900  -9.8900  -9.8894  -9.8894  -9.8893  -9.8893  -0.9369  -0.7809
 -0.5576  -0.5576  -0.5233  -0.4759  -0.4759  -0.4224  -0.4054  -0.3443
 -0.3443  -0.2283  -0.2283  -0.2230  -0.2230
 -- Virtual --
 -0.0363   0.0480   0.0811   0.1083   0.1083   0.1129   0.1129   0.1212
  0.1859   0.1859   0.1887   0.1887   0.2317   0.2790   0.3296   0.3297
  0.3851   0.4265   0.4265   0.4290   0.5000   0.5489   0.5489   0.5517
  0.5518   0.5965   0.6157   0.6157   0.6187   0.6187   0.6492   0.6719
  0.6849   0.6853   0.6853   0.6882   0.6883   0.7716   1.0078   1.0078
  1.0178   1.0604   1.0604   1.1274   1.1691   1.2031   1.2031   1.2298
  1.2938   1.2938   1.3750   1.3750   1.5183   1.5184   1.5212   1.5250
  1.5334   1.5334   1.5580   1.5580   1.6362   1.6362   1.6604   1.6966
  1.7589   1.7589   1.8113   1.8114   1.8684   1.8987   1.8988   1.9330
  1.9857   2.0349   2.0350   2.0466   2.0928   2.0928   2.1134   2.1134
  2.1688   2.1919   2.1919   2.3979   2.4918   2.6236   2.6237   2.6584
  2.7105   2.7106   2.8356   3.3527   3.3527
 --------------------------------------------------------------

          Ground-State Mulliken Net Atomic Charges

     Atom                 Charge (a.u.)
  ----------------------------------------
      1 C                     0.075934
      2 C                     0.075934
      3 C                     0.076286
      4 C                     0.075934
      5 C                     0.075934
      6 C                     0.076286
      7 H                    -0.076019
      8 H                    -0.076019
      9 H                    -0.076117
     10 H                    -0.076019
     11 H                    -0.076019
     12 H                    -0.076117
  ----------------------------------------
  Sum of atomic charges =     0.000000

 -----------------------------------------------------------------
                    Cartesian Multipole Moments
 -----------------------------------------------------------------
    Charge (ESU x 10^10)
                 0.0000
    Dipole Moment (Debye)
         X       0.0002      Y       0.0000      Z       0.0000
       Tot       0.0002
    Quadrupole Moments (Debye-Ang)
        XX     -36.2114     XY      -0.0000     YY     -36.2107
        XZ       0.0000     YZ       0.0000     ZZ     -30.0475
    Octopole Moments (Debye-Ang^2)
       XXX      -1.4687    XXY      -0.0000    XYY       1.4695
       YYY       0.0000    XXZ       0.0000    XYZ       0.0000
       YYZ       0.0000    XZZ       0.0002    YZZ      -0.0000
       ZZZ       0.0000
    Hexadecapole Moments (Debye-Ang^3)
      XXXX    -126.9309   XXXY      -0.0000   XXYY     -42.3092
      XYYY      -0.0000   YYYY    -126.9276   XXXZ       0.0000
      XXYZ       0.0000   XYYZ       0.0000   YYYZ       0.0000
      XXZZ     -55.9702   XYZZ      -0.0000   YYZZ     -55.9675
      XZZZ       0.0000   YZZZ       0.0000   ZZZZ    -212.9287
 -----------------------------------------------------------------
 Calculating analytic gradient of the SCF energy
 Call libqints based aoints job 111
 Call libqints based aoints job 120
 Gradient of SCF Energy
            1           2           3           4           5           6
    1  -0.0740409  -0.0740409   0.1482108  -0.0740409  -0.0740409   0.1482108
    2   0.1286317  -0.1286317   0.0000000  -0.1286317   0.1286317  -0.0000000
    3   0.0744914   0.0744914   0.0746461  -0.0744914  -0.0744914  -0.0746461
            7           8           9          10          11          12
    1  -0.0210557  -0.0210557   0.0419824  -0.0210557  -0.0210557   0.0419824
    2   0.0365016  -0.0365016  -0.0000000  -0.0365016   0.0365016   0.0000000
    3  -0.0311036  -0.0311036  -0.0311211   0.0311036   0.0311036   0.0311211
 Max gradient component =       1.482E-01
 RMS gradient           =       7.107E-02
 Gradient time:  CPU 9.61 s  wall 2.42 s

 *****************************************************
             Starting BFGS Algorithm
 *****************************************************
            LIBOPT3 RUN PARAMETERS

  Geometry Optimization Coordinates :
	Delocalized Natural Internal Coordinates

  Step Length Selection Method :
	Eigenvector Following Algorithm

  Convergence Criteria :
	Max Gradient Component    	3.00000000e-04
	Max Displacement Component	1.20000000e-03
	Absolute Energy Difference	1.00000000e-06

  Initial Hessian :
	Approximate Hessian - Simple Internal Coordinate Scaled

  Type of Verification :
	Verify with final updated Hessian
 *****************************************************

	OPTIMIZATION CYCLE:	1

 Scaling Magnitude of Eigenvalues
 	Minimum: -25.00000000	 Maximum: 25.00000000
 30 Hessian Eigenvalues to form next step
   0.10265788   0.10416600   0.10416601   0.10468613   0.10554284
   0.10691631   0.10691637   0.13846577   0.13846582   0.13925175
   0.13925181   0.14501188   0.14501192   0.15232714   0.15233565
   0.23262261   0.23262295   0.29690516   0.29690566   0.29973631
   0.29973673   0.41094226   0.50000000   0.50000000   0.50000000
   0.50000000   0.50000000   0.50000000   0.50000000   0.50000000


 Minimum Search taking a RFO step
 Searching for Lambda that minimizes along all modes
	Value of Lambda  -0.14744822
	Norm of Stepsize  0.48234571
	RMS of Stepsize  0.08806388

	Performing Iterative Coordinate Back-Transformation

	  Starting from Previous Position

	  iter:	0	rms: 8.3507527954e-02	maxdev: 1.7594646692e-01
	  iter:	1	rms: 5.5693667749e-04	maxdev: 1.1175701301e-03
	  iter:	2	rms: 2.4046449017e-07	maxdev: 5.7987034821e-07	 Success!

	Finished Iterative Coordinate Back-Transformation
 Adding empirical dispersion correction 
 ----------------------------------------------------------------
 Doing -D3(BJ) with
 s6  =   1.00000e+00
 s8  =   7.87500e-01
 a1  =   4.28900e-01
 a2  =   4.44070e+00
 -D3 energy without 3body term =     -9.5574578185e-03 hartrees
 ----------------------------------------------------------------
             Standard Nuclear Orientation (Angstroms)
    I     Atom           X                Y                Z
 ----------------------------------------------------------------
    1      C       0.4236036590    -0.7339030111     0.8204635496
    2      C       0.4236036590     0.7339030111     0.8204635496
    3      C      -0.8472703872    -0.0000000000     0.8204537751
    4      C       0.4236036590     0.7339030111    -0.8204635496
    5      C       0.4236036590    -0.7339030111    -0.8204635496
    6      C      -0.8472703872     0.0000000000    -0.8204537751
    7      H       0.7747208910    -1.3421281654     1.6349822498
    8      H       0.7747208910     1.3421281654     1.6349822498
    9      H      -1.5493687128    -0.0000000000     1.6350514711
   10      H       0.7747208910     1.3421281654    -1.6349822498
   11      H       0.7747208910    -1.3421281654    -1.6349822498
   12      H      -1.5493687128     0.0000000000    -1.6350514711
 ----------------------------------------------------------------
 Nuclear Repulsion Energy =         220.87116463 hartrees
 There are       21 alpha and       21 beta electrons

                       Distance Matrix (Angstroms)
             C (  1)   C (  2)   C (  3)   C (  4)   C (  5)   C (  6)
   C (  2)  1.467806
   C (  3)  1.467561  1.467561
   C (  4)  2.201612  1.640927  2.201441
   C (  5)  1.640927  2.201612  2.201441  1.467806
   C (  6)  2.201441  2.201441  1.640908  1.467561  1.467561
   H (  7)  1.075482  2.257572  2.257348  3.234564  2.553906  3.234398
   H (  8)  2.257572  1.075482  2.257348  2.553906  3.234564  3.234398
   H (  9)  2.257164  2.257164  1.075412  3.234314  3.234314  2.553908
   H ( 10)  3.234564  2.553906  3.234398  1.075482  2.257572  2.257348
   H ( 11)  2.553906  3.234564  3.234398  2.257572  1.075482  2.257348
   H ( 12)  3.234314  3.234314  2.553908  2.257164  2.257164  1.075412
             H (  7)   H (  8)   H (  9)   H ( 10)   H ( 11)
   H (  8)  2.684256
   H (  9)  2.683785  2.683785
   H ( 10)  4.230591  3.269964  4.230345
   H ( 11)  3.269964  4.230591  4.230345  2.684256
   H ( 12)  4.230345  4.230345  3.270103  2.683785  2.683785

 Applying Cartesian multipole field
    Component          Value
    ---------          -----
     (2,0,0)        1.00000E-10
     (0,2,0)        2.00000E-10
     (0,0,2)       -3.00000E-11
 Nucleus-field energy     = 1.7249968089e-08 hartrees
 Requested basis set is cc-pVDZ
 There are 54 shells and 114 basis functions
 A cutoff of  1.0D-12 yielded   1485 shell pairs
 There are      6669 function pairs (      7404 Cartesian)
 Smallest overlap matrix eigenvalue = 7.10E-04
 Guess MOs from SCF MO coefficient file

 -----------------------------------------------------------------------
  General SCF calculation program by
  Eric Jon Sundstrom, Paul Horn, Yuezhi Mao, Dmitri Zuev, Alec White,
  David Stuck, Shaama M.S., Shane Yost, Joonho Lee, David Small,
  Daniel Levine, Susi Lehtola, Hugh Burton, Evgeny Epifanovsky,
  Bang C. Huynh
 -----------------------------------------------------------------------
 Exchange:  PBE      Correlation:  PBE
 Using SG-1 standard quadrature grid
 Dispersion:   Grimme D3
 A restricted SCF calculation will be
 performed using DIIS
 SCF converges when DIIS error is below 1.0e-08
 ---------------------------------------
  Cycle       Energy         DIIS error
 ---------------------------------------
    1    -231.7489751268      2.24e-03  
    2    -231.7595221876      9.53e-04  
    3    -231.7598023665      8.65e-04  
    4    -231.7610095605      1.22e-04  
    5    -231.7610341477      1.35e-05  
    6    -231.7610344693      5.97e-07  
    7    -231.7610344700      1.84e-07  
    8    -231.7610344700      9.58e-08  
    9    -231.7610344701      1.68e-08  
   10    -231.7610344701      2.35e-10  Convergence criterion met
 ---------------------------------------
 SCF time:   CPU 4.74s  wall 1.00s 
 SCF   energy in the final basis set =     -231.7610344701
 Total energy in the final basis set =     -231.7610344701

 --------------------------------------------------------------

                    Orbital Energies (a.u.)
 --------------------------------------------------------------

 Alpha MOs
 -- Occupied --
 -9.9028  -9.9027  -9.9025  -9.9025  -9.9025  -9.9025  -0.8963  -0.7235
 -0.5586  -0.5586  -0.4953  -0.4666  -0.4666  -0.3953  -0.3906  -0.3447
 -0.3446  -0.2428  -0.2427  -0.2073  -0.2073
 -- Virtual --
 -0.0046   0.0444   0.0794   0.0879   0.0996   0.0997   0.1003   0.1003
  0.1618   0.1619   0.1891   0.1891   0.1963   0.2858   0.3180   0.3181
  0.3823   0.4143   0.4310   0.4310   0.4861   0.4863   0.5128   0.5187
  0.5188   0.5780   0.5823   0.5824   0.6047   0.6047   0.6306   0.6374
  0.6375   0.6662   0.6802   0.6802   0.6955   0.7352   0.9768   0.9769
  0.9982   1.0236   1.0238   1.0948   1.1335   1.1986   1.1987   1.2422
  1.2833   1.2833   1.3267   1.3267   1.4694   1.4694   1.4750   1.4751
  1.4897   1.5188   1.5625   1.5627   1.5987   1.5988   1.6250   1.6494
  1.7165   1.7165   1.7429   1.7429   1.8209   1.8446   1.8446   1.8605
  1.9414   1.9664   1.9665   2.0094   2.0096   2.0151   2.0504   2.0506
  2.0961   2.1678   2.1680   2.2944   2.3838   2.4838   2.4841   2.5025
  2.5809   2.5811   2.6828   3.2299   3.2301
 --------------------------------------------------------------

          Ground-State Mulliken Net Atomic Charges

     Atom                 Charge (a.u.)
  ----------------------------------------
      1 C                     0.045540
      2 C                     0.045540
      3 C                     0.046143
      4 C                     0.045540
      5 C                     0.045540
      6 C                     0.046143
      7 H                    -0.045696
      8 H                    -0.045696
      9 H                    -0.045830
     10 H                    -0.045696
     11 H                    -0.045696
     12 H                    -0.045830
  ----------------------------------------
  Sum of atomic charges =     0.000000

 -----------------------------------------------------------------
                    Cartesian Multipole Moments
 -----------------------------------------------------------------
    Charge (ESU x 10^10)
                -0.0000
    Dipole Moment (Debye)
         X      -0.0005      Y       0.0000      Z       0.0000
       Tot       0.0005
    Quadrupole Moments (Debye-Ang)
        XX     -36.3773     XY       0.0000     YY     -36.3733
        XZ       0.0000     YZ      -0.0000     ZZ     -30.8968
    Octopole Moments (Debye-Ang^2)
       XXX      -2.5313    XXY       0.0000    XYY       2.5333
       YYY       0.0000    XXZ      -0.0000    XYZ       0.0000
       YYZ       0.0000    XZZ      -0.0002    YZZ       0.0000
       ZZZ       0.0000
    Hexadecapole Moments (Debye-Ang^3)
      XXXX    -139.7792   XXXY       0.0000   XXYY     -46.5954
      XYYY       0.0000   YYYY    -139.8103   XXXZ       0.0000
      XXYZ       0.0000   XYYZ       0.0000   YYYZ       0.0000
      XXZZ     -56.9538   XYZZ       0.0000   YYZZ     -56.9504
      XZZZ       0.0000   YZZZ       0.0000   ZZZZ    -213.4172
 -----------------------------------------------------------------
 Calculating analytic gradient of the SCF energy
 Call libqints based aoints job 111
 Call libqints based aoints job 120
 Gradient of SCF Energy
            1           2           3           4           5           6
    1  -0.0222966  -0.0222966   0.0446202  -0.0222966  -0.0222966   0.0446202
    2   0.0389138  -0.0389138  -0.0000000  -0.0389138   0.0389138  -0.0000000
    3   0.0388943   0.0388943   0.0389599  -0.0388943  -0.0388943  -0.0389599
            7           8           9          10          11          12
    1  -0.0086861  -0.0086861   0.0173453  -0.0086861  -0.0086861   0.0173453
    2   0.0150652  -0.0150652  -0.0000000  -0.0150652   0.0150652  -0.0000000
    3  -0.0058592  -0.0058592  -0.0059101   0.0058592   0.0058592   0.0059101
 Max gradient component =       4.462E-02
 RMS gradient           =       2.535E-02
 Gradient time:  CPU 9.56 s  wall 2.39 s

     Step 1	:
        Energy is -231.7610344701
                            Maximum         Tolerance       Converged?
         Gradient           9.27277437e-02	3.00000000e-04	false
         Displacement       4.14844293e-01	1.20000000e-03	false
         Energy change      9.70244158e-02	1.00000000e-06	false


	OPTIMIZATION CYCLE:	2

 Scaling Magnitude of Eigenvalues
 	Minimum: -25.00000000	 Maximum: 25.00000000
 30 Hessian Eigenvalues to form next step
   0.10265788   0.10416600   0.10416601   0.10468613   0.10554284
   0.10691631   0.10691637   0.13846577   0.13846583   0.13925175
   0.13925181   0.14501188   0.14501192   0.14981137   0.15232714
   0.23262261   0.23262295   0.29690495   0.29690566   0.29973517
   0.29973673   0.38866272   0.41094226   0.50000000   0.50000000
   0.50000000   0.50000000   0.50000000   0.50000000   0.54738753


 Minimum Search taking a RFO step
 Searching for Lambda that minimizes along all modes
	Value of Lambda  -0.03313223
	Norm of Stepsize  0.30444939
	RMS of Stepsize  0.05558460

	Performing Iterative Coordinate Back-Transformation

	  Starting from Previous Position

	  iter:	0	rms: 5.7931912730e-02	maxdev: 1.1437520328e-01
	  iter:	1	rms: 4.1962498392e-04	maxdev: 1.0312105471e-03
	  iter:	2	rms: 1.3160630640e-07	maxdev: 2.9574131973e-07	 Success!

	Finished Iterative Coordinate Back-Transformation
 Adding empirical dispersion correction 
 ----------------------------------------------------------------
 Doing -D3(BJ) with
 s6  =   1.00000e+00
 s8  =   7.87500e-01
 a1  =   4.28900e-01
 a2  =   4.44070e+00
 -D3 energy without 3body term =     -9.5085385925e-03 hartrees
 ----------------------------------------------------------------
             Standard Nuclear Orientation (Angstroms)
    I     Atom           X                Y                Z
 ----------------------------------------------------------------
    1      C       0.4362739310    -0.7560812805     0.7975951605
    2      C       0.4362739310     0.7560812805     0.7975951605
    3      C      -0.8726344179     0.0000000000     0.7976067002
    4      C       0.4362739310     0.7560812805    -0.7975951605
    5      C       0.4362739310    -0.7560812805    -0.7975951605
    6      C      -0.8726344179    -0.0000000000    -0.7976067002
    7      H       0.8049880923    -1.3948993603     1.6064932223
    8      H       0.8049880923     1.3948993603     1.6064932223
    9      H      -1.6098796286     0.0000000000     1.6067501879
   10      H       0.8049880923     1.3948993603    -1.6064932223
   11      H       0.8049880923    -1.3948993603    -1.6064932223
   12      H      -1.6098796286    -0.0000000000    -1.6067501879
 ----------------------------------------------------------------
 Nuclear Repulsion Energy =         218.89971830 hartrees
 There are       21 alpha and       21 beta electrons

                       Distance Matrix (Angstroms)
             C (  1)   C (  2)   C (  3)   C (  4)   C (  5)   C (  6)
   C (  2)  1.512163
   C (  3)  1.511589  1.511589
   C (  4)  2.198015  1.595190  2.197628
   C (  5)  1.595190  2.198015  2.197628  1.512163
   C (  6)  2.197628  2.197628  1.595213  1.511589  1.511589
   H (  7)  1.094694  2.327441  2.326899  3.246892  2.514693  3.246515
   H (  8)  2.327441  1.094694  2.326899  2.514693  3.246892  3.246515
   H (  9)  2.326615  2.326615  1.094643  3.246426  3.246426  2.514848
   H ( 10)  3.246892  2.514693  3.246515  1.094694  2.327441  2.326899
   H ( 11)  2.514693  3.246892  3.246515  2.327441  1.094694  2.326899
   H ( 12)  3.246426  3.246426  2.514848  2.326615  2.326615  1.094643
             H (  7)   H (  8)   H (  9)   H ( 10)   H ( 11)
   H (  8)  2.789799
   H (  9)  2.788787  2.788787
   H ( 10)  4.255145  3.212986  4.254675
   H ( 11)  3.212986  4.255145  4.254675  2.789799
   H ( 12)  4.254675  4.254675  3.213500  2.788787  2.788787

 Applying Cartesian multipole field
    Component          Value
    ---------          -----
     (2,0,0)        1.00000E-10
     (0,2,0)        2.00000E-10
     (0,0,2)       -3.00000E-11
 Nucleus-field energy     = 1.8916077687e-08 hartrees
 Requested basis set is cc-pVDZ
 There are 54 shells and 114 basis functions
 A cutoff of  1.0D-12 yielded   1485 shell pairs
 There are      6669 function pairs (      7404 Cartesian)
 Smallest overlap matrix eigenvalue = 7.13E-04
 Guess MOs from SCF MO coefficient file

 -----------------------------------------------------------------------
  General SCF calculation program by
  Eric Jon Sundstrom, Paul Horn, Yuezhi Mao, Dmitri Zuev, Alec White,
  David Stuck, Shaama M.S., Shane Yost, Joonho Lee, David Small,
  Daniel Levine, Susi Lehtola, Hugh Burton, Evgeny Epifanovsky,
  Bang C. Huynh
 -----------------------------------------------------------------------
 Exchange:  PBE      Correlation:  PBE
 Using SG-1 standard quadrature grid
 Dispersion:   Grimme D3
 A restricted SCF calculation will be
 performed using DIIS
 SCF converges when DIIS error is below 1.0e-08
 ---------------------------------------
  Cycle       Energy         DIIS error
 ---------------------------------------
    1    -231.7792093869      1.18e-03  
    2    -231.7831359055      3.02e-04  
    3    -231.7831570529      2.82e-04  
    4    -231.7832834345      7.22e-05  
    5    -231.7832918679      7.82e-06  
    6    -231.7832919770      2.19e-07  
    7    -231.7832919771      9.84e-08  
    8    -231.7832919771      5.29e-08  
    9    -231.7832919771      6.90e-10  Convergence criterion met
 ---------------------------------------
 SCF time:   CPU 4.44s  wall 1.00s 
 SCF   energy in the final basis set =     -231.7832919771
 Total energy in the final basis set =     -231.7832919771

 --------------------------------------------------------------

                    Orbital Energies (a.u.)
 --------------------------------------------------------------

 Alpha MOs
 -- Occupied --
 -9.9067  -9.9067  -9.9065  -9.9065  -9.9065  -9.9065  -0.8848  -0.6932
 -0.5656  -0.5655  -0.4838  -0.4607  -0.4607  -0.3876  -0.3812  -0.3480
 -0.3478  -0.2524  -0.2524  -0.1964  -0.1962
 -- Virtual --
  0.0211   0.0429   0.0564   0.0911   0.0912   0.0957   0.0984   0.0984
  0.1477   0.1478   0.1835   0.1984   0.1985   0.2873   0.3133   0.3135
  0.3798   0.4092   0.4305   0.4306   0.4566   0.4569   0.5026   0.5028
  0.5227   0.5663   0.5665   0.5687   0.6100   0.6100   0.6235   0.6246
  0.6248   0.6616   0.6848   0.6848   0.7074   0.7158   0.9635   0.9638
  0.9968   0.9970   0.9997   1.0794   1.1237   1.1983   1.1985   1.2739
  1.2948   1.2949   1.3152   1.3153   1.4401   1.4404   1.4439   1.4439
  1.4737   1.5384   1.5609   1.5611   1.5819   1.5821   1.6129   1.6456
  1.6816   1.6817   1.7585   1.7585   1.7931   1.8194   1.8225   1.8225
  1.9264   1.9421   1.9421   1.9762   1.9764   2.0078   2.0428   2.0431
  2.0714   2.1969   2.1972   2.2539   2.3387   2.4181   2.4186   2.4243
  2.5441   2.5442   2.6288   3.1958   3.1962
 --------------------------------------------------------------

          Ground-State Mulliken Net Atomic Charges

     Atom                 Charge (a.u.)
  ----------------------------------------
      1 C                     0.034496
      2 C                     0.034496
      3 C                     0.035178
      4 C                     0.034496
      5 C                     0.034496
      6 C                     0.035178
      7 H                    -0.034678
      8 H                    -0.034678
      9 H                    -0.034814
     10 H                    -0.034678
     11 H                    -0.034678
     12 H                    -0.034814
  ----------------------------------------
  Sum of atomic charges =     0.000000

 -----------------------------------------------------------------
                    Cartesian Multipole Moments
 -----------------------------------------------------------------
    Charge (ESU x 10^10)
                 0.0000
    Dipole Moment (Debye)
         X      -0.0012      Y       0.0000      Z      -0.0000
       Tot       0.0012
    Quadrupole Moments (Debye-Ang)
        XX     -36.2061     XY       0.0000     YY     -36.1975
        XZ      -0.0000     YZ       0.0000     ZZ     -31.7238
    Octopole Moments (Debye-Ang^2)
       XXX      -3.2274    XXY       0.0000    XYY       3.2313
       YYY       0.0000    XXZ      -0.0000    XYZ       0.0000
       YYZ      -0.0000    XZZ      -0.0019    YZZ       0.0000
       ZZZ      -0.0000
    Hexadecapole Moments (Debye-Ang^3)
      XXXX    -146.0125   XXXY       0.0000   XXYY     -48.6773
      XYYY       0.0000   YYYY    -146.0840   XXXZ      -0.0000
      XXYZ      -0.0000   XYYZ      -0.0000   YYYZ       0.0000
      XXZZ     -56.6489   XYZZ       0.0000   YYZZ     -56.6469
      XZZZ      -0.0000   YZZZ      -0.0000   ZZZZ    -209.2512
 -----------------------------------------------------------------
 Calculating analytic gradient of the SCF energy
 Call libqints based aoints job 111
 Call libqints based aoints job 120
 Gradient of SCF Energy
            1           2           3           4           5           6
    1  -0.0053769  -0.0053769   0.0107778  -0.0053769  -0.0053769   0.0107778
    2   0.0093823  -0.0093823   0.0000000  -0.0093823   0.0093823   0.0000000
    3   0.0130352   0.0130352   0.0129701  -0.0130352  -0.0130352  -0.0129701
            7           8           9          10          11          12
    1  -0.0031610  -0.0031610   0.0062979  -0.0031610  -0.0031610   0.0062979
    2   0.0054921  -0.0054921   0.0000000  -0.0054921   0.0054921  -0.0000000
    3   0.0027594   0.0027594   0.0027569  -0.0027594  -0.0027594  -0.0027569
 Max gradient component =       1.304E-02
 RMS gradient           =       7.457E-03
 Gradient time:  CPU 9.51 s  wall 2.38 s

     Step 2	:
        Energy is -231.7832919771
                            Maximum         Tolerance       Converged?
         Gradient           3.12372523e-02	3.00000000e-04	false
         Displacement       2.78054081e-01	1.20000000e-03	false
         Energy change      2.22575070e-02	1.00000000e-06	false


	OPTIMIZATION CYCLE:	3

 Scaling Magnitude of Eigenvalues
 	Minimum: -25.00000000	 Maximum: 25.00000000
 30 Hessian Eigenvalues to form next step
   0.10265788   0.10416600   0.10416601   0.10468613   0.10554284
   0.10691630   0.10691637   0.12755876   0.13846577   0.13846586
   0.13925175   0.13925181   0.14501188   0.14501192   0.15232714
   0.23262261   0.23262295   0.29690534   0.29690566   0.29972259
   0.29973673   0.31223379   0.41094226   0.50000000   0.50000000
   0.50000000   0.50000000   0.50000000   0.50111353   0.56788321


 Minimum Search taking a RFO step
 Searching for Lambda that minimizes along all modes
	Value of Lambda  -0.00774228
	Norm of Stepsize  0.21072904
	RMS of Stepsize  0.03847368

	Performing Iterative Coordinate Back-Transformation

	  Starting from Previous Position

	  iter:	0	rms: 4.2831268371e-02	maxdev: 7.5009716055e-02
	  iter:	1	rms: 3.5748173169e-04	maxdev: 6.5292581037e-04
	  iter:	2	rms: 1.1166576525e-08	maxdev: 1.9947949962e-08	 Success!

	Finished Iterative Coordinate Back-Transformation
 Adding empirical dispersion correction 
 ----------------------------------------------------------------
 Doing -D3(BJ) with
 s6  =   1.00000e+00
 s8  =   7.87500e-01
 a1  =   4.28900e-01
 a2  =   4.44070e+00
 -D3 energy without 3body term =     -9.4996130978e-03 hartrees
 ----------------------------------------------------------------
             Standard Nuclear Orientation (Angstroms)
    I     Atom           X                Y                Z
 ----------------------------------------------------------------
    1      C       0.4423729925    -0.7667758529     0.7816647431
    2      C       0.4423729925     0.7667758529     0.7816647431
    3      C      -0.8848754241     0.0000000000     0.7817355178
    4      C       0.4423729925     0.7667758529    -0.7816647431
    5      C       0.4423729925    -0.7667758529    -0.7816647431
    6      C      -0.8848754241    -0.0000000000    -0.7817355178
    7      H       0.8246834984    -1.4292131194     1.5730999657
    8      H       0.8246834984     1.4292131194     1.5730999657
    9      H      -1.6492275577     0.0000000000     1.5735205714
   10      H       0.8246834984     1.4292131194    -1.5730999657
   11      H       0.8246834984    -1.4292131194    -1.5730999657
   12      H      -1.6492275577     0.0000000000    -1.5735205714
 ----------------------------------------------------------------
 Nuclear Repulsion Energy =         218.53666183 hartrees
 There are       21 alpha and       21 beta electrons

                       Distance Matrix (Angstroms)
             C (  1)   C (  2)   C (  3)   C (  4)   C (  5)   C (  6)
   C (  2)  1.533552
   C (  3)  1.532819  1.532819
   C (  4)  2.189927  1.563329  2.189464
   C (  5)  1.563329  2.189927  2.189464  1.533552
   C (  6)  2.189464  2.189464  1.563471  1.532819  1.532819
   H (  7)  1.100615  2.365354  2.364635  3.242444  2.475864  3.241989
   H (  8)  2.365354  1.100615  2.364635  2.475864  3.242444  3.241989
   H (  9)  2.364270  2.364270  1.100526  3.241857  3.241857  2.476180
   H ( 10)  3.242444  2.475864  3.241989  1.100615  2.365354  2.364635
   H ( 11)  2.475864  3.242444  3.241989  2.365354  1.100615  2.364635
   H ( 12)  3.241857  3.241857  2.476180  2.364270  2.364270  1.100526
             H (  7)   H (  8)   H (  9)   H ( 10)   H ( 11)
   H (  8)  2.858426
   H (  9)  2.857077  2.857077
   H ( 10)  4.250785  3.146200  4.250189
   H ( 11)  3.146200  4.250785  4.250189  2.858426
   H ( 12)  4.250189  4.250189  3.147041  2.857077  2.857077

 Applying Cartesian multipole field
    Component          Value
    ---------          -----
     (2,0,0)        1.00000E-10
     (0,2,0)        2.00000E-10
     (0,0,2)       -3.00000E-11
 Nucleus-field energy     = 1.9912701855e-08 hartrees
 Requested basis set is cc-pVDZ
 There are 54 shells and 114 basis functions
 A cutoff of  1.0D-12 yielded   1485 shell pairs
 There are      6669 function pairs (      7404 Cartesian)
 Smallest overlap matrix eigenvalue = 6.99E-04
 Guess MOs from SCF MO coefficient file

 -----------------------------------------------------------------------
  General SCF calculation program by
  Eric Jon Sundstrom, Paul Horn, Yuezhi Mao, Dmitri Zuev, Alec White,
  David Stuck, Shaama M.S., Shane Yost, Joonho Lee, David Small,
  Daniel Levine, Susi Lehtola, Hugh Burton, Evgeny Epifanovsky,
  Bang C. Huynh
 -----------------------------------------------------------------------
 Exchange:  PBE      Correlation:  PBE
 Using SG-1 standard quadrature grid
 Dispersion:   Grimme D3
 A restricted SCF calculation will be
 performed using DIIS
 SCF converges when DIIS error is below 1.0e-08
 ---------------------------------------
  Cycle       Energy         DIIS error
 ---------------------------------------
    1    -231.7863644402      6.87e-04  
    2    -231.7878150302      1.14e-04  
    3    -231.7878265190      7.43e-05  
    4    -231.7878349092      2.81e-05  
    5    -231.7878361605      5.83e-06  
    6    -231.7878362182      1.00e-07  
    7    -231.7878362182      6.77e-08  
    8    -231.7878362182      2.65e-08  
    9    -231.7878362182      1.96e-09  Convergence criterion met
 ---------------------------------------
 SCF time:   CPU 4.47s  wall 1.00s 
 SCF   energy in the final basis set =     -231.7878362182
 Total energy in the final basis set =     -231.7878362182

 --------------------------------------------------------------

                    Orbital Energies (a.u.)
 --------------------------------------------------------------

 Alpha MOs
 -- Occupied --
 -9.9074  -9.9074  -9.9073  -9.9073  -9.9073  -9.9072  -0.8823  -0.6773
 -0.5721  -0.5720  -0.4791  -0.4579  -0.4578  -0.3879  -0.3749  -0.3509
 -0.3508  -0.2577  -0.2576  -0.1901  -0.1899
 -- Virtual --
  0.0373   0.0433   0.0439   0.0850   0.0852   0.0992   0.0992   0.1021
  0.1412   0.1414   0.1789   0.2063   0.2064   0.2877   0.3127   0.3129
  0.3775   0.4090   0.4294   0.4296   0.4425   0.4427   0.4964   0.4965
  0.5292   0.5592   0.5594   0.5634   0.6142   0.6143   0.6206   0.6252
  0.6253   0.6587   0.6901   0.6901   0.7064   0.7178   0.9596   0.9599
  0.9788   0.9791   1.0061   1.0770   1.1242   1.1912   1.1915   1.2934
  1.3066   1.3067   1.3264   1.3265   1.4197   1.4200   1.4304   1.4305
  1.4646   1.5577   1.5581   1.5597   1.5734   1.5735   1.6103   1.6528
  1.6725   1.6726   1.7768   1.7770   1.7770   1.8043   1.8135   1.8135
  1.9250   1.9311   1.9312   1.9671   1.9673   2.0047   2.0523   2.0527
  2.0658   2.2322   2.2325   2.2424   2.3186   2.3831   2.3836   2.3848
  2.5409   2.5410   2.6103   3.1925   3.1930
 --------------------------------------------------------------

          Ground-State Mulliken Net Atomic Charges

     Atom                 Charge (a.u.)
  ----------------------------------------
      1 C                     0.031914
      2 C                     0.031914
      3 C                     0.032603
      4 C                     0.031914
      5 C                     0.031914
      6 C                     0.032603
      7 H                    -0.032097
      8 H                    -0.032097
      9 H                    -0.032237
     10 H                    -0.032097
     11 H                    -0.032097
     12 H                    -0.032237
  ----------------------------------------
  Sum of atomic charges =     0.000000

 -----------------------------------------------------------------
                    Cartesian Multipole Moments
 -----------------------------------------------------------------
    Charge (ESU x 10^10)
                 0.0000
    Dipole Moment (Debye)
         X      -0.0015      Y      -0.0000      Z      -0.0000
       Tot       0.0015
    Quadrupole Moments (Debye-Ang)
        XX     -35.9688     XY      -0.0000     YY     -35.9576
        XZ      -0.0000     YZ      -0.0000     ZZ     -32.3751
    Octopole Moments (Debye-Ang^2)
       XXX      -3.6786    XXY       0.0000    XYY       3.6848
       YYY       0.0000    XXZ      -0.0000    XYZ       0.0000
       YYZ       0.0000    XZZ      -0.0038    YZZ      -0.0000
       ZZZ      -0.0000
    Hexadecapole Moments (Debye-Ang^3)
      XXXX    -148.7766   XXXY      -0.0000   XXYY     -49.6010
      XYYY      -0.0000   YYYY    -148.8696   XXXZ      -0.0000
      XXYZ       0.0000   XYYZ       0.0000   YYYZ       0.0000
      XXZZ     -56.2190   XYZZ      -0.0000   YYZZ     -56.2204
      XZZZ      -0.0000   YZZZ       0.0000   ZZZZ    -205.5514
 -----------------------------------------------------------------
 Calculating analytic gradient of the SCF energy
 Call libqints based aoints job 111
 Call libqints based aoints job 120
 Gradient of SCF Energy
            1           2           3           4           5           6
    1   0.0015632   0.0015632  -0.0031501   0.0015632   0.0015632  -0.0031501
    2  -0.0027850   0.0027850   0.0000000   0.0027850  -0.0027850  -0.0000000
    3  -0.0030930  -0.0030930  -0.0031231   0.0030930   0.0030930   0.0031231
            7           8           9          10          11          12
    1  -0.0009112  -0.0009112   0.0018461  -0.0009112  -0.0009112   0.0018461
    2   0.0015926  -0.0015926  -0.0000000  -0.0015926   0.0015926  -0.0000000
    3   0.0039836   0.0039836   0.0039776  -0.0039836  -0.0039836  -0.0039776
 Max gradient component =       3.984E-03
 RMS gradient           =       2.549E-03
 Gradient time:  CPU 9.55 s  wall 2.39 s

     Step 3	:
        Energy is -231.7878362182
                            Maximum         Tolerance       Converged?
         Gradient           6.81192190e-03	3.00000000e-04	false
         Displacement       1.86415890e-01	1.20000000e-03	false
         Energy change      4.54424109e-03	1.00000000e-06	false


	OPTIMIZATION CYCLE:	4

 Scaling Magnitude of Eigenvalues
 	Minimum: -25.00000000	 Maximum: 25.00000000
 30 Hessian Eigenvalues to form next step
   0.09208309   0.10265788   0.10416600   0.10416601   0.10468613
   0.10554284   0.10691637   0.10691639   0.13846577   0.13846586
   0.13925175   0.13925181   0.14501188   0.14501192   0.15232714
   0.23262261   0.23262295   0.29690523   0.29690566   0.29973673
   0.29973698   0.37228840   0.41094226   0.50000000   0.50000000
   0.50000000   0.50000000   0.50000029   0.50182693   0.57081153


 Minimum Search taking a RFO step
 Searching for Lambda that minimizes along all modes
	Value of Lambda  -0.00092065
	Norm of Stepsize  0.09628961
	RMS of Stepsize  0.01758000

	Performing Iterative Coordinate Back-Transformation

	  Starting from Previous Position

	  iter:	0	rms: 1.7609922047e-02	maxdev: 3.1853104720e-02
	  iter:	1	rms: 1.5207393108e-04	maxdev: 3.5749401068e-04
	  iter:	2	rms: 1.0418513517e-08	maxdev: 2.2715069535e-08	 Success!

	Finished Iterative Coordinate Back-Transformation
 Adding empirical dispersion correction 
 ----------------------------------------------------------------
 Doing -D3(BJ) with
 s6  =   1.00000e+00
 s8  =   7.87500e-01
 a1  =   4.28900e-01
 a2  =   4.44070e+00
 -D3 energy without 3body term =     -9.5012741750e-03 hartrees
 ----------------------------------------------------------------
             Standard Nuclear Orientation (Angstroms)
    I     Atom           X                Y                Z
 ----------------------------------------------------------------
    1      C       0.4431702903    -0.7681239995     0.7788905748
    2      C       0.4431702903     0.7681239995     0.7788905748
    3      C      -0.8864549078    -0.0000000000     0.7789835659
    4      C       0.4431702903     0.7681239995    -0.7788905748
    5      C       0.4431702903    -0.7681239995    -0.7788905748
    6      C      -0.8864549078    -0.0000000000    -0.7789835659
    7      H       0.8321257594    -1.4420970737     1.5561892463
    8      H       0.8321257594     1.4420970737     1.5561892463
    9      H      -1.6641271914     0.0000000000     1.5566514047
   10      H       0.8321257594     1.4420970737    -1.5561892463
   11      H       0.8321257594    -1.4420970737    -1.5561892463
   12      H      -1.6641271914     0.0000000000    -1.5566514047
 ----------------------------------------------------------------
 Nuclear Repulsion Energy =         218.58509770 hartrees
 There are       21 alpha and       21 beta electrons

                       Distance Matrix (Angstroms)
             C (  1)   C (  2)   C (  3)   C (  4)   C (  5)   C (  6)
   C (  2)  1.536248
   C (  3)  1.535551  1.535551
   C (  4)  2.187862  1.557781  2.187439
   C (  5)  1.557781  2.187862  2.187439  1.536248
   C (  6)  2.187439  2.187439  1.557967  1.535551  1.535551
   H (  7)  1.099872  2.374986  2.374281  3.238667  2.461326  3.238240
   H (  8)  2.374986  1.099872  2.374281  2.461326  3.238667  3.238240
   H (  9)  2.373948  2.373948  1.099792  3.238128  3.238128  2.461700
   H ( 10)  3.238667  2.461326  3.238240  1.099872  2.374986  2.374281
   H ( 11)  2.461326  3.238667  3.238240  2.374986  1.099872  2.374281
   H ( 12)  3.238128  3.238128  2.461700  2.373948  2.373948  1.099792
             H (  7)   H (  8)   H (  9)   H ( 10)   H ( 11)
   H (  8)  2.884194
   H (  9)  2.882867  2.882867
   H ( 10)  4.243286  3.112378  4.242723
   H ( 11)  3.112378  4.243286  4.242723  2.884194
   H ( 12)  4.242723  4.242723  3.113303  2.882867  2.882867

 Applying Cartesian multipole field
    Component          Value
    ---------          -----
     (2,0,0)        1.00000E-10
     (0,2,0)        2.00000E-10
     (0,0,2)       -3.00000E-11
 Nucleus-field energy     = 2.0175413715e-08 hartrees
 Requested basis set is cc-pVDZ
 There are 54 shells and 114 basis functions
 A cutoff of  1.0D-12 yielded   1485 shell pairs
 There are      6669 function pairs (      7404 Cartesian)
 Smallest overlap matrix eigenvalue = 6.95E-04
 Guess MOs from SCF MO coefficient file

 -----------------------------------------------------------------------
  General SCF calculation program by
  Eric Jon Sundstrom, Paul Horn, Yuezhi Mao, Dmitri Zuev, Alec White,
  David Stuck, Shaama M.S., Shane Yost, Joonho Lee, David Small,
  Daniel Levine, Susi Lehtola, Hugh Burton, Evgeny Epifanovsky,
  Bang C. Huynh
 -----------------------------------------------------------------------
 Exchange:  PBE      Correlation:  PBE
 Using SG-1 standard quadrature grid
 Dispersion:   Grimme D3
 A restricted SCF calculation will be
 performed using DIIS
 SCF converges when DIIS error is below 1.0e-08
 ---------------------------------------
  Cycle       Energy         DIIS error
 ---------------------------------------
    1    -231.7884073240      2.19e-04  
    2    -231.7885343672      1.57e-05  
    3    -231.7885345001      1.39e-05  
    4    -231.7885347812      5.73e-06  
    5    -231.7885348343      3.91e-07  
    6    -231.7885348345      1.14e-07  
    7    -231.7885348346      7.18e-08  
    8    -231.7885348346      3.94e-09  Convergence criterion met
 ---------------------------------------
 SCF time:   CPU 4.27s  wall 1.00s 
 SCF   energy in the final basis set =     -231.7885348346
 Total energy in the final basis set =     -231.7885348346

 --------------------------------------------------------------

                    Orbital Energies (a.u.)
 --------------------------------------------------------------

 Alpha MOs
 -- Occupied --
 -9.9071  -9.9071  -9.9070  -9.9070  -9.9070  -9.9069  -0.8822  -0.6745
 -0.5737  -0.5736  -0.4783  -0.4576  -0.4575  -0.3885  -0.3749  -0.3515
 -0.3514  -0.2576  -0.2575  -0.1895  -0.1892
 -- Virtual --
  0.0411   0.0420   0.0441   0.0833   0.0835   0.1001   0.1001   0.1031
  0.1413   0.1414   0.1784   0.2086   0.2087   0.2878   0.3125   0.3127
  0.3764   0.4090   0.4300   0.4301   0.4392   0.4393   0.4952   0.4953
  0.5301   0.5589   0.5591   0.5623   0.6157   0.6158   0.6200   0.6264
  0.6265   0.6579   0.6918   0.6918   0.7053   0.7219   0.9600   0.9602
  0.9721   0.9724   1.0095   1.0797   1.1272   1.1891   1.1894   1.2966
  1.3108   1.3109   1.3353   1.3354   1.4119   1.4122   1.4280   1.4281
  1.4610   1.5560   1.5563   1.5701   1.5705   1.5706   1.6096   1.6511
  1.6770   1.6771   1.7718   1.7852   1.7852   1.8083   1.8117   1.8117
  1.9267   1.9300   1.9300   1.9684   1.9686   2.0027   2.0555   2.0558
  2.0700   2.2436   2.2477   2.2480   2.3136   2.3720   2.3723   2.3748
  2.5467   2.5468   2.6078   3.1957   3.1962
 --------------------------------------------------------------

          Ground-State Mulliken Net Atomic Charges

     Atom                 Charge (a.u.)
  ----------------------------------------
      1 C                     0.032502
      2 C                     0.032502
      3 C                     0.033143
      4 C                     0.032502
      5 C                     0.032502
      6 C                     0.033143
      7 H                    -0.032676
      8 H                    -0.032676
      9 H                    -0.032794
     10 H                    -0.032676
     11 H                    -0.032676
     12 H                    -0.032794
  ----------------------------------------
  Sum of atomic charges =     0.000000

 -----------------------------------------------------------------
                    Cartesian Multipole Moments
 -----------------------------------------------------------------
    Charge (ESU x 10^10)
                 0.0000
    Dipole Moment (Debye)
         X      -0.0015      Y       0.0000      Z       0.0000
       Tot       0.0015
    Quadrupole Moments (Debye-Ang)
        XX     -35.8403     XY      -0.0000     YY     -35.8293
        XZ      -0.0000     YZ       0.0000     ZZ     -32.6260
    Octopole Moments (Debye-Ang^2)
       XXX      -3.8431    XXY      -0.0000    XYY       3.8490
       YYY       0.0000    XXZ       0.0000    XYZ      -0.0000
       YYZ       0.0000    XZZ      -0.0044    YZZ      -0.0000
       ZZZ       0.0000
    Hexadecapole Moments (Debye-Ang^3)
      XXXX    -149.0456   XXXY      -0.0000   XXYY     -49.6902
      XYYY      -0.0000   YYYY    -149.1332   XXXZ       0.0000
      XXYZ      -0.0000   XYYZ      -0.0000   YYYZ      -0.0000
      XXZZ     -56.0654   XYZZ      -0.0000   YYZZ     -56.0677
      XZZZ       0.0000   YZZZ      -0.0000   ZZZZ    -204.8155
 -----------------------------------------------------------------
 Calculating analytic gradient of the SCF energy
 Call libqints based aoints job 111
 Call libqints based aoints job 120
 Gradient of SCF Energy
            1           2           3           4           5           6
    1   0.0024189   0.0024189  -0.0048720   0.0024189   0.0024189  -0.0048720
    2  -0.0042586   0.0042586   0.0000000   0.0042586  -0.0042586  -0.0000000
    3  -0.0047448  -0.0047448  -0.0047486   0.0047448   0.0047448   0.0047486
            7           8           9          10          11          12
    1  -0.0005846  -0.0005846   0.0012035  -0.0005846  -0.0005846   0.0012035
    2   0.0010238  -0.0010238  -0.0000000  -0.0010238   0.0010238   0.0000000
    3   0.0026854   0.0026854   0.0026841  -0.0026854  -0.0026854  -0.0026841
 Max gradient component =       4.872E-03
 RMS gradient           =       3.029E-03
 Gradient time:  CPU 9.54 s  wall 2.39 s

     Step 4	:
        Energy is -231.7885348346
                            Maximum         Tolerance       Converged?
         Gradient           6.95350694e-03	3.00000000e-04	false
         Displacement       7.02893810e-02	1.20000000e-03	false
         Energy change      6.98616368e-04	1.00000000e-06	false


	OPTIMIZATION CYCLE:	5

 Scaling Magnitude of Eigenvalues
 	Minimum: -25.00000000	 Maximum: 25.00000000
 30 Hessian Eigenvalues to form next step
   0.04018647   0.10265788   0.10416600   0.10416601   0.10468613
   0.10554284   0.10691637   0.10691639   0.13846577   0.13846616
   0.13925175   0.13925181   0.14501188   0.14501192   0.15232714
   0.23262261   0.23262295   0.29690493   0.29690566   0.29973612
   0.29973673   0.41094226   0.41806580   0.49999929   0.50000000
   0.50000000   0.50000000   0.50000000   0.50508179   0.56177493


 Minimum Search taking a RFO step
 Searching for Lambda that minimizes along all modes
	Value of Lambda  -0.00096394
	Norm of Stepsize  0.14372859
	RMS of Stepsize  0.02624113

	Performing Iterative Coordinate Back-Transformation

	  Starting from Previous Position

	  iter:	0	rms: 2.2625165593e-02	maxdev: 4.2399482022e-02
	  iter:	1	rms: 3.5978538453e-04	maxdev: 8.6353150015e-04
	  iter:	2	rms: 6.0788939988e-08	maxdev: 1.3696199424e-07	 Success!

	Finished Iterative Coordinate Back-Transformation
 Adding empirical dispersion correction 
 ----------------------------------------------------------------
 Doing -D3(BJ) with
 s6  =   1.00000e+00
 s8  =   7.87500e-01
 a1  =   4.28900e-01
 a2  =   4.44070e+00
 -D3 energy without 3body term =     -9.5042212315e-03 hartrees
 ----------------------------------------------------------------
             Standard Nuclear Orientation (Angstroms)
    I     Atom           X                Y                Z
 ----------------------------------------------------------------
    1      C       0.4428877383    -0.7675205947     0.7787158996
    2      C       0.4428877383     0.7675205947     0.7787158996
    3      C      -0.8858133061    -0.0000000000     0.7788142477
    4      C       0.4428877383     0.7675205947    -0.7787158996
    5      C       0.4428877383    -0.7675205947    -0.7787158996
    6      C      -0.8858133061     0.0000000000    -0.7788142477
    7      H       0.8413482071    -1.4580127241     1.5336816304
    8      H       0.8413482071     1.4580127241     1.5336816304
    9      H      -1.6826485848    -0.0000000000     1.5341161843
   10      H       0.8413482071     1.4580127241    -1.5336816304
   11      H       0.8413482071    -1.4580127241    -1.5336816304
   12      H      -1.6826485848     0.0000000000    -1.5341161843
 ----------------------------------------------------------------
 Nuclear Repulsion Energy =         218.70708047 hartrees
 There are       21 alpha and       21 beta electrons

                       Distance Matrix (Angstroms)
             C (  1)   C (  2)   C (  3)   C (  4)   C (  5)   C (  6)
   C (  2)  1.535041
   C (  3)  1.534449  1.534449
   C (  4)  2.186766  1.557432  2.186420
   C (  5)  1.557432  2.186766  2.186420  1.535041
   C (  6)  2.186420  2.186420  1.557628  1.534449  1.534449
   H (  7)  1.097963  2.383641  2.383005  3.234030  2.445962  3.233655
   H (  8)  2.383641  1.097963  2.383005  2.445962  3.234030  3.233655
   H (  9)  2.382776  2.382776  1.097920  3.233602  3.233602  2.446343
   H ( 10)  3.234030  2.445962  3.233655  1.097963  2.383641  2.383005
   H ( 11)  2.445962  3.234030  3.233655  2.383641  1.097963  2.383005
   H ( 12)  3.233602  3.233602  2.446343  2.382776  2.382776  1.097920
             H (  7)   H (  8)   H (  9)   H ( 10)   H ( 11)
   H (  8)  2.916025
   H (  9)  2.914852  2.914852
   H ( 10)  4.232248  3.067363  4.231754
   H ( 11)  3.067363  4.232248  4.231754  2.916025
   H ( 12)  4.231754  4.231754  3.068232  2.914852  2.914852

 Applying Cartesian multipole field
    Component          Value
    ---------          -----
     (2,0,0)        1.00000E-10
     (0,2,0)        2.00000E-10
     (0,0,2)       -3.00000E-11
 Nucleus-field energy     = 2.0396458269e-08 hartrees
 Requested basis set is cc-pVDZ
 There are 54 shells and 114 basis functions
 A cutoff of  1.0D-12 yielded   1485 shell pairs
 There are      6669 function pairs (      7404 Cartesian)
 Smallest overlap matrix eigenvalue = 6.94E-04
 Guess MOs from SCF MO coefficient file

 -----------------------------------------------------------------------
  General SCF calculation program by
  Eric Jon Sundstrom, Paul Horn, Yuezhi Mao, Dmitri Zuev, Alec White,
  David Stuck, Shaama M.S., Shane Yost, Joonho Lee, David Small,
  Daniel Levine, Susi Lehtola, Hugh Burton, Evgeny Epifanovsky,
  Bang C. Huynh
 -----------------------------------------------------------------------
 Exchange:  PBE      Correlation:  PBE
 Using SG-1 standard quadrature grid
 Dispersion:   Grimme D3
 A restricted SCF calculation will be
 performed using DIIS
 SCF converges when DIIS error is below 1.0e-08
 ---------------------------------------
  Cycle       Energy         DIIS error
 ---------------------------------------
    1    -231.7889212990      3.08e-04  
    2    -231.7891428729      3.85e-05  
    3    -231.7891427576      4.17e-05  
    4    -231.7891456054      1.05e-05  
    5    -231.7891457855      9.23e-07  
    6    -231.7891457869      1.67e-07  
    7    -231.7891457869      1.18e-07  
    8    -231.7891457870      2.20e-09  Convergence criterion met
 ---------------------------------------
 SCF time:   CPU 4.27s  wall 1.00s 
 SCF   energy in the final basis set =     -231.7891457870
 Total energy in the final basis set =     -231.7891457870

 --------------------------------------------------------------

                    Orbital Energies (a.u.)
 --------------------------------------------------------------

 Alpha MOs
 -- Occupied --
 -9.9065  -9.9065  -9.9064  -9.9064  -9.9064  -9.9064  -0.8824  -0.6739
 -0.5746  -0.5745  -0.4777  -0.4576  -0.4575  -0.3895  -0.3768  -0.3515
 -0.3514  -0.2557  -0.2556  -0.1903  -0.1901
 -- Virtual --
  0.0420   0.0435   0.0455   0.0817   0.0818   0.1014   0.1014   0.1027
  0.1432   0.1433   0.1786   0.2104   0.2105   0.2880   0.3120   0.3121
  0.3749   0.4083   0.4313   0.4315   0.4366   0.4366   0.4942   0.4943
  0.5295   0.5600   0.5602   0.5619   0.6181   0.6183   0.6197   0.6268
  0.6269   0.6571   0.6932   0.6933   0.7061   0.7267   0.9619   0.9621
  0.9642   0.9644   1.0140   1.0846   1.1328   1.1879   1.1882   1.2975
  1.3153   1.3153   1.3478   1.3479   1.4016   1.4018   1.4275   1.4276
  1.4552   1.5536   1.5539   1.5670   1.5671   1.5838   1.6086   1.6429
  1.6881   1.6882   1.7659   1.7940   1.7940   1.8108   1.8108   1.8206
  1.9288   1.9302   1.9302   1.9716   1.9718   1.9991   2.0557   2.0559
  2.0797   2.2471   2.2647   2.2648   2.3080   2.3607   2.3608   2.3642
  2.5577   2.5577   2.6070   3.2000   3.2004
 --------------------------------------------------------------

          Ground-State Mulliken Net Atomic Charges

     Atom                 Charge (a.u.)
  ----------------------------------------
      1 C                     0.033770
      2 C                     0.033770
      3 C                     0.034316
      4 C                     0.033770
      5 C                     0.033770
      6 C                     0.034316
      7 H                    -0.033928
      8 H                    -0.033928
      9 H                    -0.034001
     10 H                    -0.033928
     11 H                    -0.033928
     12 H                    -0.034001
  ----------------------------------------
  Sum of atomic charges =     0.000000

 -----------------------------------------------------------------
                    Cartesian Multipole Moments
 -----------------------------------------------------------------
    Charge (ESU x 10^10)
                -0.0000
    Dipole Moment (Debye)
         X      -0.0014      Y       0.0000      Z      -0.0000
       Tot       0.0014
    Quadrupole Moments (Debye-Ang)
        XX     -35.6672     XY      -0.0000     YY     -35.6571
        XZ      -0.0000     YZ      -0.0000     ZZ     -32.9293
    Octopole Moments (Debye-Ang^2)
       XXX      -4.0403    XXY       0.0000    XYY       4.0430
       YYY       0.0000    XXZ       0.0000    XYZ      -0.0000
       YYZ      -0.0000    XZZ      -0.0051    YZZ       0.0000
       ZZZ      -0.0000
    Hexadecapole Moments (Debye-Ang^3)
      XXXX    -148.8214   XXXY       0.0000   XXYY     -49.6143
      XYYY       0.0000   YYYY    -148.8939   XXXZ       0.0000
      XXYZ      -0.0000   XYYZ       0.0000   YYYZ      -0.0000
      XXZZ     -55.9483   XYZZ       0.0000   YYZZ     -55.9503
      XZZZ       0.0000   YZZZ      -0.0000   ZZZZ    -204.7548
 -----------------------------------------------------------------
 Calculating analytic gradient of the SCF energy
 Call libqints based aoints job 111
 Call libqints based aoints job 120
 Gradient of SCF Energy
            1           2           3           4           5           6
    1   0.0018747   0.0018747  -0.0037747   0.0018747   0.0018747  -0.0037747
    2  -0.0032516   0.0032516  -0.0000000   0.0032516  -0.0032516  -0.0000000
    3  -0.0028267  -0.0028267  -0.0028125   0.0028267   0.0028267   0.0028125
            7           8           9          10          11          12
    1  -0.0003483  -0.0003483   0.0007220  -0.0003483  -0.0003483   0.0007220
    2   0.0006052  -0.0006052  -0.0000000  -0.0006052   0.0006052   0.0000000
    3   0.0003745   0.0003745   0.0003839  -0.0003745  -0.0003745  -0.0003839
 Max gradient component =       3.775E-03
 RMS gradient           =       1.947E-03
 Gradient time:  CPU 9.58 s  wall 2.40 s

     Step 5	:
        Energy is -231.7891457870
                            Maximum         Tolerance       Converged?
         Gradient           4.79549302e-03	3.00000000e-04	false
         Displacement       8.72266736e-02	1.20000000e-03	false
         Energy change      6.10952409e-04	1.00000000e-06	false


	OPTIMIZATION CYCLE:	6

 Scaling Magnitude of Eigenvalues
 	Minimum: -25.00000000	 Maximum: 25.00000000
 30 Hessian Eigenvalues to form next step
   0.03297057   0.10265788   0.10416600   0.10416601   0.10468613
   0.10554284   0.10691637   0.10691638   0.13846577   0.13846646
   0.13925175   0.13925181   0.14501188   0.14501192   0.15232714
   0.23262261   0.23262295   0.29690566   0.29690582   0.29973398
   0.29973673   0.37044589   0.41094226   0.49999987   0.50000000
   0.50000000   0.50000000   0.50000000   0.51023190   0.56778844


 Minimum Search taking a RFO step
 Searching for Lambda that minimizes along all modes
	Value of Lambda  -0.00019322
	Norm of Stepsize  0.05690884
	RMS of Stepsize  0.01039008

	Performing Iterative Coordinate Back-Transformation

	  Starting from Previous Position

	  iter:	0	rms: 7.0254320164e-03	maxdev: 1.2564395666e-02
	  iter:	1	rms: 4.9387624742e-05	maxdev: 1.1848048856e-04
	  iter:	2	rms: 1.1033115146e-09	maxdev: 2.4967051059e-09	 Success!

	Finished Iterative Coordinate Back-Transformation
 Adding empirical dispersion correction 
 ----------------------------------------------------------------
 Doing -D3(BJ) with
 s6  =   1.00000e+00
 s8  =   7.87500e-01
 a1  =   4.28900e-01
 a2  =   4.44070e+00
 -D3 energy without 3body term =     -9.5039239163e-03 hartrees
 ----------------------------------------------------------------
             Standard Nuclear Orientation (Angstroms)
    I     Atom           X                Y                Z
 ----------------------------------------------------------------
    1      C       0.4421375211    -0.7661603135     0.7803356505
    2      C       0.4421375211     0.7661603135     0.7803356505
    3      C      -0.8842478557    -0.0000000000     0.7804131286
    4      C       0.4421375211     0.7661603135    -0.7803356505
    5      C       0.4421375211    -0.7661603135    -0.7803356505
    6      C      -0.8842478557    -0.0000000000    -0.7804131286
    7      H       0.8442469817    -1.4630106725     1.5271026524
    8      H       0.8442469817     1.4630106725     1.5271026524
    9      H      -1.6885111498     0.0000000000     1.5274520375
   10      H       0.8442469817     1.4630106725    -1.5271026524
   11      H       0.8442469817    -1.4630106725    -1.5271026524
   12      H      -1.6885111498     0.0000000000    -1.5274520375
 ----------------------------------------------------------------
 Nuclear Repulsion Energy =         218.75519211 hartrees
 There are       21 alpha and       21 beta electrons

                       Distance Matrix (Angstroms)
             C (  1)   C (  2)   C (  3)   C (  4)   C (  5)   C (  6)
   C (  2)  1.532321
   C (  3)  1.531764  1.531764
   C (  4)  2.187167  1.560671  2.186833
   C (  5)  1.560671  2.187167  2.186833  1.532321
   C (  6)  2.186833  2.186833  1.560826  1.531764  1.531764
   H (  7)  1.097704  2.385069  2.384458  3.233445  2.443678  3.233067
   H (  8)  2.385069  1.097704  2.384458  2.443678  3.233445  3.233067
   H (  9)  2.384292  2.384292  1.097682  3.233040  3.233040  2.443989
   H ( 10)  3.233445  2.443678  3.233067  1.097704  2.385069  2.384458
   H ( 11)  2.443678  3.233445  3.233067  2.385069  1.097704  2.384458
   H ( 12)  3.233040  3.233040  2.443989  2.384292  2.384292  1.097682
             H (  7)   H (  8)   H (  9)   H ( 10)   H ( 11)
   H (  8)  2.926021
   H (  9)  2.924938  2.924938
   H ( 10)  4.229630  3.054205  4.229133
   H ( 11)  3.054205  4.229630  4.229133  2.926021
   H ( 12)  4.229133  4.229133  3.054904  2.924938  2.924938

 Applying Cartesian multipole field
    Component          Value
    ---------          -----
     (2,0,0)        1.00000E-10
     (0,2,0)        2.00000E-10
     (0,0,2)       -3.00000E-11
 Nucleus-field energy     = 2.0409238446e-08 hartrees
 Requested basis set is cc-pVDZ
 There are 54 shells and 114 basis functions
 A cutoff of  1.0D-12 yielded   1485 shell pairs
 There are      6669 function pairs (      7404 Cartesian)
 Smallest overlap matrix eigenvalue = 6.96E-04
 Guess MOs from SCF MO coefficient file

 -----------------------------------------------------------------------
  General SCF calculation program by
  Eric Jon Sundstrom, Paul Horn, Yuezhi Mao, Dmitri Zuev, Alec White,
  David Stuck, Shaama M.S., Shane Yost, Joonho Lee, David Small,
  Daniel Levine, Susi Lehtola, Hugh Burton, Evgeny Epifanovsky,
  Bang C. Huynh
 -----------------------------------------------------------------------
 Exchange:  PBE      Correlation:  PBE
 Using SG-1 standard quadrature grid
 Dispersion:   Grimme D3
 A restricted SCF calculation will be
 performed using DIIS
 SCF converges when DIIS error is below 1.0e-08
 ---------------------------------------
  Cycle       Energy         DIIS error
 ---------------------------------------
    1    -231.7892157941      1.36e-04  
    2    -231.7892592947      2.89e-05  
    3    -231.7892591978      3.02e-05  
    4    -231.7892606485      7.55e-06  
    5    -231.7892607437      1.42e-07  
    6    -231.7892607438      6.80e-08  
    7    -231.7892607438      4.82e-08  
    8    -231.7892607438      3.56e-09  Convergence criterion met
 ---------------------------------------
 SCF time:   CPU 4.38s  wall 1.00s 
 SCF   energy in the final basis set =     -231.7892607438
 Total energy in the final basis set =     -231.7892607438

 --------------------------------------------------------------

                    Orbital Energies (a.u.)
 --------------------------------------------------------------

 Alpha MOs
 -- Occupied --
 -9.9063  -9.9063  -9.9062  -9.9062  -9.9062  -9.9062  -0.8828  -0.6752
 -0.5742  -0.5741  -0.4776  -0.4576  -0.4575  -0.3901  -0.3781  -0.3511
 -0.3510  -0.2542  -0.2540  -0.1914  -0.1912
 -- Virtual --
  0.0428   0.0433   0.0458   0.0814   0.0815   0.1017   0.1017   0.1017
  0.1446   0.1447   0.1791   0.2105   0.2105   0.2880   0.3115   0.3117
  0.3743   0.4073   0.4320   0.4322   0.4364   0.4364   0.4938   0.4939
  0.5282   0.5609   0.5610   0.5622   0.6193   0.6193   0.6197   0.6261
  0.6262   0.6567   0.6934   0.6934   0.7073   0.7279   0.9620   0.9622
  0.9627   0.9629   1.0152   1.0863   1.1353   1.1886   1.1889   1.2961
  1.3162   1.3162   1.3515   1.3515   1.3982   1.3984   1.4283   1.4285
  1.4525   1.5527   1.5530   1.5659   1.5660   1.5881   1.6079   1.6370
  1.6938   1.6940   1.7643   1.7957   1.7957   1.8110   1.8111   1.8277
  1.9285   1.9304   1.9304   1.9722   1.9723   1.9976   2.0533   2.0535
  2.0841   2.2474   2.2679   2.2679   2.3060   2.3579   2.3580   2.3611
  2.5615   2.5615   2.6077   3.2000   3.2004
 --------------------------------------------------------------

          Ground-State Mulliken Net Atomic Charges

     Atom                 Charge (a.u.)
  ----------------------------------------
      1 C                     0.034021
      2 C                     0.034021
      3 C                     0.034530
      4 C                     0.034021
      5 C                     0.034021
      6 C                     0.034530
      7 H                    -0.034172
      8 H                    -0.034172
      9 H                    -0.034227
     10 H                    -0.034172
     11 H                    -0.034172
     12 H                    -0.034227
  ----------------------------------------
  Sum of atomic charges =     0.000000

 -----------------------------------------------------------------
                    Cartesian Multipole Moments
 -----------------------------------------------------------------
    Charge (ESU x 10^10)
                -0.0000
    Dipole Moment (Debye)
         X      -0.0014      Y       0.0000      Z       0.0000
       Tot       0.0014
    Quadrupole Moments (Debye-Ang)
        XX     -35.6142     XY      -0.0000     YY     -35.6045
        XZ      -0.0000     YZ       0.0000     ZZ     -33.0127
    Octopole Moments (Debye-Ang^2)
       XXX      -4.0957    XXY       0.0000    XYY       4.0950
       YYY       0.0000    XXZ       0.0000    XYZ       0.0000
       YYZ      -0.0000    XZZ      -0.0051    YZZ       0.0000
       ZZZ       0.0000
    Hexadecapole Moments (Debye-Ang^3)
      XXXX    -148.5227   XXXY      -0.0000   XXYY     -49.5145
      XYYY      -0.0000   YYYY    -148.5899   XXXZ       0.0000
      XXYZ      -0.0000   XYYZ       0.0000   YYYZ       0.0000
      XXZZ     -55.9582   XYZZ      -0.0000   YYZZ     -55.9589
      XZZZ       0.0000   YZZZ       0.0000   ZZZZ    -205.2624
 -----------------------------------------------------------------
 Calculating analytic gradient of the SCF energy
 Call libqints based aoints job 111
 Call libqints based aoints job 120
 Gradient of SCF Energy
            1           2           3           4           5           6
    1   0.0006724   0.0006724  -0.0013570   0.0006724   0.0006724  -0.0013570
    2  -0.0011348   0.0011348   0.0000000   0.0011348  -0.0011348   0.0000000
    3  -0.0005954  -0.0005954  -0.0005914   0.0005954   0.0005954   0.0005914
            7           8           9          10          11          12
    1  -0.0001753  -0.0001753   0.0003628  -0.0001753  -0.0001753   0.0003628
    2   0.0003003  -0.0003003   0.0000000  -0.0003003   0.0003003   0.0000000
    3  -0.0002758  -0.0002758  -0.0002633   0.0002758   0.0002758   0.0002633
 Max gradient component =       1.357E-03
 RMS gradient           =       6.225E-04
 Gradient time:  CPU 9.56 s  wall 2.39 s

     Step 6	:
        Energy is -231.7892607438
                            Maximum         Tolerance       Converged?
         Gradient           1.57689382e-03	3.00000000e-04	false
         Displacement       3.95585181e-02	1.20000000e-03	false
         Energy change      1.14956792e-04	1.00000000e-06	false


	OPTIMIZATION CYCLE:	7

 Scaling Magnitude of Eigenvalues
 	Minimum: -25.00000000	 Maximum: 25.00000000
 30 Hessian Eigenvalues to form next step
   0.03411425   0.10265788   0.10416600   0.10416601   0.10468613
   0.10554284   0.10691637   0.10691638   0.13846375   0.13846577
   0.13925175   0.13925181   0.14501188   0.14501192   0.15232714
   0.23262261   0.23262295   0.29682196   0.29690566   0.29928386
   0.29973673   0.29990610   0.41094226   0.49845748   0.50000000
   0.50000000   0.50000000   0.50000000   0.50000006   0.56396175


 Minimum Search taking a RFO step
 Searching for Lambda that minimizes along all modes
	Value of Lambda  -0.00001693
	Norm of Stepsize  0.00935895
	RMS of Stepsize  0.00170870

	Performing Iterative Coordinate Back-Transformation

	  Starting from Previous Position

	  iter:	0	rms: 8.4898352763e-04	maxdev: 1.4159244700e-03
	  iter:	1	rms: 5.0517975870e-07	maxdev: 1.0366765750e-06	 Success!

	Finished Iterative Coordinate Back-Transformation
 Adding empirical dispersion correction 
 ----------------------------------------------------------------
 Doing -D3(BJ) with
 s6  =   1.00000e+00
 s8  =   7.87500e-01
 a1  =   4.28900e-01
 a2  =   4.44070e+00
 -D3 energy without 3body term =     -9.5027154745e-03 hartrees
 ----------------------------------------------------------------
             Standard Nuclear Orientation (Angstroms)
    I     Atom           X                Y                Z
 ----------------------------------------------------------------
    1      C       0.4418309706    -0.7656216923     0.7810849235
    2      C       0.4418309706     0.7656216923     0.7810849235
    3      C      -0.8836016927    -0.0000000000     0.7811452469
    4      C       0.4418309706     0.7656216923    -0.7810849235
    5      C       0.4418309706    -0.7656216923    -0.7810849235
    6      C      -0.8836016927     0.0000000000    -0.7811452469
    7      H       0.8444824244    -1.4634269431     1.5272801337
    8      H       0.8444824244     1.4634269431     1.5272801337
    9      H      -1.6890150973     0.0000000000     1.5275638887
   10      H       0.8444824244     1.4634269431    -1.5272801337
   11      H       0.8444824244    -1.4634269431    -1.5272801337
   12      H      -1.6890150973     0.0000000000    -1.5275638887
 ----------------------------------------------------------------
 Nuclear Repulsion Energy =         218.75433583 hartrees
 There are       21 alpha and       21 beta electrons

                       Distance Matrix (Angstroms)
             C (  1)   C (  2)   C (  3)   C (  4)   C (  5)   C (  6)
   C (  2)  1.531243
   C (  3)  1.530669  1.530669
   C (  4)  2.187483  1.562170  2.187124
   C (  5)  1.562170  2.187483  2.187124  1.531243
   C (  6)  2.187124  2.187124  1.562290  1.530669  1.530669
   H (  7)  1.098120  2.384868  2.384242  3.234090  2.444915  3.233685
   H (  8)  2.384868  1.098120  2.384242  2.444915  3.234090  3.233685
   H (  9)  2.384096  2.384096  1.098104  3.233658  3.233658  2.445164
   H ( 10)  3.234090  2.444915  3.233685  1.098120  2.384868  2.384242
   H ( 11)  2.444915  3.234090  3.233685  2.384868  1.098120  2.384242
   H ( 12)  3.233658  3.233658  2.445164  2.384096  2.384096  1.098104
             H (  7)   H (  8)   H (  9)   H ( 10)   H ( 11)
   H (  8)  2.926854
   H (  9)  2.925787  2.925787
   H ( 10)  4.230462  3.054560  4.229929
   H ( 11)  3.054560  4.230462  4.229929  2.926854
   H ( 12)  4.229929  4.229929  3.055128  2.925787  2.925787

 Applying Cartesian multipole field
    Component          Value
    ---------          -----
     (2,0,0)        1.00000E-10
     (0,2,0)        2.00000E-10
     (0,0,2)       -3.00000E-11
 Nucleus-field energy     = 2.0388359004e-08 hartrees
 Requested basis set is cc-pVDZ
 There are 54 shells and 114 basis functions
 A cutoff of  1.0D-12 yielded   1485 shell pairs
 There are      6669 function pairs (      7404 Cartesian)
 Smallest overlap matrix eigenvalue = 6.96E-04
 Guess MOs from SCF MO coefficient file

 -----------------------------------------------------------------------
  General SCF calculation program by
  Eric Jon Sundstrom, Paul Horn, Yuezhi Mao, Dmitri Zuev, Alec White,
  David Stuck, Shaama M.S., Shane Yost, Joonho Lee, David Small,
  Daniel Levine, Susi Lehtola, Hugh Burton, Evgeny Epifanovsky,
  Bang C. Huynh
 -----------------------------------------------------------------------
 Exchange:  PBE      Correlation:  PBE
 Using SG-1 standard quadrature grid
 Dispersion:   Grimme D3
 A restricted SCF calculation will be
 performed using DIIS
 SCF converges when DIIS error is below 1.0e-08
 ---------------------------------------
  Cycle       Energy         DIIS error
 ---------------------------------------
    1    -231.7892671197      3.32e-05  
    2    -231.7892701502      9.80e-06  
    3    -231.7892701495      9.62e-06  
    4    -231.7892702932      2.21e-06  
    5    -231.7892703016      1.56e-07  
    6    -231.7892703016      2.13e-08  
    7    -231.7892703016      4.65e-09  Convergence criterion met
 ---------------------------------------
 SCF time:   CPU 4.18s  wall 1.00s 
 SCF   energy in the final basis set =     -231.7892703016
 Total energy in the final basis set =     -231.7892703016

 --------------------------------------------------------------

                    Orbital Energies (a.u.)
 --------------------------------------------------------------

 Alpha MOs
 -- Occupied --
 -9.9064  -9.9064  -9.9062  -9.9062  -9.9062  -9.9062  -0.8829  -0.6758
 -0.5739  -0.5738  -0.4776  -0.4575  -0.4575  -0.3902  -0.3785  -0.3509
 -0.3508  -0.2537  -0.2536  -0.1918  -0.1916
 -- Virtual --
  0.0422   0.0439   0.0457   0.0815   0.0816   0.1013   0.1016   0.1016
  0.1450   0.1451   0.1793   0.2103   0.2104   0.2880   0.3113   0.3115
  0.3742   0.4069   0.4322   0.4324   0.4365   0.4366   0.4937   0.4938
  0.5277   0.5610   0.5611   0.5623   0.6194   0.6195   0.6197   0.6257
  0.6258   0.6566   0.6933   0.6933   0.7078   0.7278   0.9620   0.9622
  0.9627   0.9629   1.0151   1.0862   1.1357   1.1891   1.1894   1.2953
  1.3160   1.3160   1.3514   1.3514   1.3981   1.3983   1.4286   1.4288
  1.4519   1.5527   1.5529   1.5659   1.5660   1.5882   1.6076   1.6352
  1.6948   1.6950   1.7642   1.7955   1.7955   1.8110   1.8110   1.8292
  1.9279   1.9302   1.9302   1.9716   1.9717   1.9975   2.0521   2.0523
  2.0847   2.2465   2.2673   2.2673   2.3054   2.3576   2.3576   2.3608
  2.5613   2.5613   2.6079   3.1990   3.1993
 --------------------------------------------------------------

          Ground-State Mulliken Net Atomic Charges

     Atom                 Charge (a.u.)
  ----------------------------------------
      1 C                     0.033829
      2 C                     0.033829
      3 C                     0.034337
      4 C                     0.033829
      5 C                     0.033829
      6 C                     0.034337
      7 H                    -0.033980
      8 H                    -0.033980
      9 H                    -0.034035
     10 H                    -0.033980
     11 H                    -0.033980
     12 H                    -0.034035
  ----------------------------------------
  Sum of atomic charges =     0.000000

 -----------------------------------------------------------------
                    Cartesian Multipole Moments
 -----------------------------------------------------------------
    Charge (ESU x 10^10)
                 0.0000
    Dipole Moment (Debye)
         X      -0.0015      Y       0.0000      Z      -0.0000
       Tot       0.0015
    Quadrupole Moments (Debye-Ang)
        XX     -35.6135     XY      -0.0000     YY     -35.6039
        XZ       0.0000     YZ      -0.0000     ZZ     -33.0116
    Octopole Moments (Debye-Ang^2)
       XXX      -4.0969    XXY       0.0000    XYY       4.0943
       YYY       0.0000    XXZ      -0.0000    XYZ       0.0000
       YYZ      -0.0000    XZZ      -0.0050    YZZ       0.0000
       ZZZ      -0.0000
    Hexadecapole Moments (Debye-Ang^3)
      XXXX    -148.4355   XXXY       0.0000   XXYY     -49.4860
      XYYY       0.0000   YYYY    -148.5049   XXXZ      -0.0000
      XXYZ      -0.0000   XYYZ      -0.0000   YYYZ      -0.0000
      XXZZ     -55.9783   XYZZ      -0.0000   YYZZ     -55.9784
      XZZZ       0.0000   YZZZ      -0.0000   ZZZZ    -205.5312
 -----------------------------------------------------------------
 Calculating analytic gradient of the SCF energy
 Call libqints based aoints job 111
 Call libqints based aoints job 120
 Gradient of SCF Energy
            1           2           3           4           5           6
    1   0.0001142   0.0001142  -0.0002358   0.0001142   0.0001142  -0.0002358
    2  -0.0001698   0.0001698  -0.0000000   0.0001698  -0.0001698   0.0000000
    3   0.0000239   0.0000239   0.0000160  -0.0000239  -0.0000239  -0.0000160
            7           8           9          10          11          12
    1  -0.0000537  -0.0000537   0.0001149  -0.0000537  -0.0000537   0.0001149
    2   0.0000882  -0.0000882   0.0000000  -0.0000882   0.0000882   0.0000000
    3  -0.0001404  -0.0001404  -0.0001287   0.0001404   0.0001404   0.0001287
 Max gradient component =       2.358E-04
 RMS gradient           =       1.134E-04
 Gradient time:  CPU 9.63 s  wall 2.41 s

     Step 7	:
        Energy is -231.7892703016
                            Maximum         Tolerance       Converged?
         Gradient           4.08034336e-04	3.00000000e-04	false
         Displacement       8.06014067e-03	1.20000000e-03	false
         Energy change      9.55785924e-06	1.00000000e-06	false


	OPTIMIZATION CYCLE:	8

 Scaling Magnitude of Eigenvalues
 	Minimum: -25.00000000	 Maximum: 25.00000000
 30 Hessian Eigenvalues to form next step
   0.03590102   0.10265788   0.10416600   0.10416601   0.10468613
   0.10554284   0.10691471   0.10691637   0.13839746   0.13846577
   0.13925175   0.13925181   0.14501188   0.14501192   0.15232714
   0.23262261   0.23262295   0.26611635   0.29690566   0.29704724
   0.29973673   0.29974337   0.41094226   0.46971303   0.49999999
   0.50000000   0.50000000   0.50000000   0.50000000   0.55721609


 Minimum Search taking a RFO step
 Searching for Lambda that minimizes along all modes
	Value of Lambda  -0.00000075
	Norm of Stepsize  0.00204075
	RMS of Stepsize  0.00037259

	Performing Iterative Coordinate Back-Transformation

	  Starting from Previous Position

	  iter:	0	rms: 3.9623646545e-04	maxdev: 9.2336467653e-04
	  iter:	1	rms: 6.9344448166e-08	maxdev: 1.4831255951e-07	 Success!

	Finished Iterative Coordinate Back-Transformation
 Adding empirical dispersion correction 
 ----------------------------------------------------------------
 Doing -D3(BJ) with
 s6  =   1.00000e+00
 s8  =   7.87500e-01
 a1  =   4.28900e-01
 a2  =   4.44070e+00
 -D3 energy without 3body term =     -9.5022158437e-03 hartrees
 ----------------------------------------------------------------
             Standard Nuclear Orientation (Angstroms)
    I     Atom           X                Y                Z
 ----------------------------------------------------------------
    1      C       0.4417916255    -0.7655555409     0.7811998573
    2      C       0.4417916255     0.7655555409     0.7811998573
    3      C      -0.8835052331    -0.0000000000     0.7812520018
    4      C       0.4417916255     0.7655555409    -0.7811998573
    5      C       0.4417916255    -0.7655555409    -0.7811998573
    6      C      -0.8835052331    -0.0000000000    -0.7812520018
    7      H       0.8444096508    -1.4633063218     1.5277687881
    8      H       0.8444096508     1.4633063218     1.5277687881
    9      H      -1.6888873195     0.0000000000     1.5280099590
   10      H       0.8444096508     1.4633063218    -1.5277687881
   11      H       0.8444096508    -1.4633063218    -1.5277687881
   12      H      -1.6888873195     0.0000000000    -1.5280099590
 ----------------------------------------------------------------
 Nuclear Repulsion Energy =         218.74899789 hartrees
 There are       21 alpha and       21 beta electrons

                       Distance Matrix (Angstroms)
             C (  1)   C (  2)   C (  3)   C (  4)   C (  5)   C (  6)
   C (  2)  1.531111
   C (  3)  1.530519  1.530519
   C (  4)  2.187554  1.562400  2.187177
   C (  5)  1.562400  2.187554  2.187177  1.531111
   C (  6)  2.187177  2.187177  1.562504  1.530519  1.530519
   H (  7)  1.098327  2.384804  2.384165  3.234388  2.445464  3.233965
   H (  8)  2.384804  1.098327  2.384165  2.445464  3.234388  3.233965
   H (  9)  2.384029  2.384029  1.098311  3.233932  3.233932  2.445676
   H ( 10)  3.234388  2.445464  3.233965  1.098327  2.384804  2.384165
   H ( 11)  2.445464  3.234388  3.233965  2.384804  1.098327  2.384165
   H ( 12)  3.233932  3.233932  2.445676  2.384029  2.384029  1.098311
             H (  7)   H (  8)   H (  9)   H ( 10)   H ( 11)
   H (  8)  2.926613
   H (  9)  2.925553  2.925553
   H ( 10)  4.231001  3.055538  4.230442
   H ( 11)  3.055538  4.231001  4.230442  2.926613
   H ( 12)  4.230442  4.230442  3.056020  2.925553  2.925553

 Applying Cartesian multipole field
    Component          Value
    ---------          -----
     (2,0,0)        1.00000E-10
     (0,2,0)        2.00000E-10
     (0,0,2)       -3.00000E-11
 Nucleus-field energy     = 2.0382494123e-08 hartrees
 Requested basis set is cc-pVDZ
 There are 54 shells and 114 basis functions
 A cutoff of  1.0D-12 yielded   1485 shell pairs
 There are      6669 function pairs (      7404 Cartesian)
 Smallest overlap matrix eigenvalue = 6.96E-04
 Guess MOs from SCF MO coefficient file

 -----------------------------------------------------------------------
  General SCF calculation program by
  Eric Jon Sundstrom, Paul Horn, Yuezhi Mao, Dmitri Zuev, Alec White,
  David Stuck, Shaama M.S., Shane Yost, Joonho Lee, David Small,
  Daniel Levine, Susi Lehtola, Hugh Burton, Evgeny Epifanovsky,
  Bang C. Huynh
 -----------------------------------------------------------------------
 Exchange:  PBE      Correlation:  PBE
 Using SG-1 standard quadrature grid
 Dispersion:   Grimme D3
 A restricted SCF calculation will be
 performed using DIIS
 SCF converges when DIIS error is below 1.0e-08
 ---------------------------------------
  Cycle       Energy         DIIS error
 ---------------------------------------
    1    -231.7892706040      6.51e-06  
    2    -231.7892707157      1.64e-06  
    3    -231.7892707162      1.52e-06  
    4    -231.7892707196      3.34e-07  
    5    -231.7892707198      3.31e-08  
    6    -231.7892707198      3.05e-09  Convergence criterion met
 ---------------------------------------
 SCF time:   CPU 3.87s  wall 1.00s 
 SCF   energy in the final basis set =     -231.7892707198
 Total energy in the final basis set =     -231.7892707198

 --------------------------------------------------------------

                    Orbital Energies (a.u.)
 --------------------------------------------------------------

 Alpha MOs
 -- Occupied --
 -9.9064  -9.9064  -9.9063  -9.9063  -9.9063  -9.9062  -0.8830  -0.6759
 -0.5738  -0.5737  -0.4775  -0.4575  -0.4574  -0.3902  -0.3785  -0.3509
 -0.3508  -0.2537  -0.2536  -0.1919  -0.1917
 -- Virtual --
  0.0421   0.0440   0.0456   0.0815   0.0816   0.1012   0.1015   0.1016
  0.1450   0.1451   0.1793   0.2102   0.2103   0.2880   0.3113   0.3115
  0.3742   0.4068   0.4322   0.4324   0.4365   0.4366   0.4936   0.4937
  0.5276   0.5610   0.5611   0.5624   0.6194   0.6195   0.6197   0.6256
  0.6257   0.6566   0.6932   0.6933   0.7078   0.7277   0.9621   0.9623
  0.9626   0.9628   1.0150   1.0861   1.1356   1.1892   1.1895   1.2951
  1.3159   1.3159   1.3511   1.3511   1.3982   1.3984   1.4286   1.4288
  1.4518   1.5527   1.5530   1.5659   1.5660   1.5880   1.6075   1.6351
  1.6947   1.6949   1.7643   1.7954   1.7954   1.8109   1.8109   1.8292
  1.9277   1.9301   1.9301   1.9713   1.9714   1.9975   2.0518   2.0520
  2.0846   2.2460   2.2669   2.2669   2.3053   2.3576   2.3576   2.3608
  2.5608   2.5609   2.6078   3.1985   3.1989
 --------------------------------------------------------------

          Ground-State Mulliken Net Atomic Charges

     Atom                 Charge (a.u.)
  ----------------------------------------
      1 C                     0.033725
      2 C                     0.033725
      3 C                     0.034236
      4 C                     0.033725
      5 C                     0.033725
      6 C                     0.034236
      7 H                    -0.033876
      8 H                    -0.033876
      9 H                    -0.033933
     10 H                    -0.033876
     11 H                    -0.033876
     12 H                    -0.033933
  ----------------------------------------
  Sum of atomic charges =     0.000000

 -----------------------------------------------------------------
                    Cartesian Multipole Moments
 -----------------------------------------------------------------
    Charge (ESU x 10^10)
                 0.0000
    Dipole Moment (Debye)
         X      -0.0015      Y       0.0000      Z       0.0000
       Tot       0.0015
    Quadrupole Moments (Debye-Ang)
        XX     -35.6167     XY       0.0000     YY     -35.6070
        XZ       0.0000     YZ       0.0000     ZZ     -33.0067
    Octopole Moments (Debye-Ang^2)
       XXX      -4.0950    XXY       0.0000    XYY       4.0913
       YYY       0.0000    XXZ       0.0000    XYZ       0.0000
       YYZ       0.0000    XZZ      -0.0049    YZZ       0.0000
       ZZZ       0.0000
    Hexadecapole Moments (Debye-Ang^3)
      XXXX    -148.4337   XXXY       0.0000   XXYY     -49.4857
      XYYY       0.0000   YYYY    -148.5054   XXXZ      -0.0000
      XXYZ       0.0000   XYYZ       0.0000   YYYZ       0.0000
      XXZZ     -55.9844   XYZZ       0.0000   YYZZ     -55.9843
      XZZZ      -0.0000   YZZZ       0.0000   ZZZZ    -205.5847
 -----------------------------------------------------------------
 Calculating analytic gradient of the SCF energy
 Call libqints based aoints job 111
 Call libqints based aoints job 120
 Gradient of SCF Energy
            1           2           3           4           5           6
    1   0.0000105   0.0000105  -0.0000262   0.0000105   0.0000105  -0.0000262
    2   0.0000026  -0.0000026   0.0000000  -0.0000026   0.0000026   0.0000000
    3   0.0000338   0.0000338   0.0000209  -0.0000338  -0.0000338  -0.0000209
            7           8           9          10          11          12
    1  -0.0000119  -0.0000119   0.0000291  -0.0000119  -0.0000119   0.0000291
    2   0.0000152  -0.0000152   0.0000000  -0.0000152   0.0000152   0.0000000
    3  -0.0000310  -0.0000310  -0.0000207   0.0000310   0.0000310   0.0000207
 Max gradient component =       3.383E-05
 RMS gradient           =       2.054E-05
 Gradient time:  CPU 9.59 s  wall 2.40 s

     Step 8	:
        Energy is -231.7892707198
                            Maximum         Tolerance       Converged?
         Gradient           5.64650015e-05	3.00000000e-04	true
         Displacement       1.54062320e-03	1.20000000e-03	false
         Energy change      4.18187994e-07	1.00000000e-06	true

	 Optimization Converged in 8 cycles

 *****************************************************
             End of BFGS Algorithm
 *****************************************************
		----------------------------------
		   Verification of Optimization
		----------------------------------

 Eigenvalues of Hessian in Optimization Verification
   0.03452201   0.10265788   0.10416600   0.10416601   0.10468613
   0.10554284   0.10685943   0.10691637   0.13747751   0.13846577
   0.13925175   0.13925181   0.14501188   0.14501192   0.15232714
   0.23262261   0.23262295   0.27898340   0.29690566   0.29821169
   0.29973673   0.30005190   0.41094226   0.41511393   0.50000000
   0.50000000   0.50000000   0.50000000   0.50000032   0.55258178


 Found a minimum
		---------------------------------
		       End of Verification
		---------------------------------

 Final energy is -231.789270719808

	******************************
	**  OPTIMIZATION CONVERGED  **
	******************************
 Adding empirical dispersion correction 
 ----------------------------------------------------------------
 Doing -D3(BJ) with
 s6  =   1.00000
 s8  =   0.78750
 a1  =   0.42890
 a2  =   4.44070
 -D3 energy without 3body term =     -0.0095022158 hartrees
 ----------------------------------------------------------------
             Standard Nuclear Orientation (Angstroms)
    I     Atom           X                Y                Z
 ----------------------------------------------------------------
    1      C       0.4417916255    -0.7655555409     0.7811998573
    2      C       0.4417916255     0.7655555409     0.7811998573
    3      C      -0.8835052331    -0.0000000000     0.7812520018
    4      C       0.4417916255     0.7655555409    -0.7811998573
    5      C       0.4417916255    -0.7655555409    -0.7811998573
    6      C      -0.8835052331    -0.0000000000    -0.7812520018
    7      H       0.8444096508    -1.4633063218     1.5277687881
    8      H       0.8444096508     1.4633063218     1.5277687881
    9      H      -1.6888873195     0.0000000000     1.5280099590
   10      H       0.8444096508     1.4633063218    -1.5277687881
   11      H       0.8444096508    -1.4633063218    -1.5277687881
   12      H      -1.6888873195     0.0000000000    -1.5280099590
 ----------------------------------------------------------------
 Nuclear Repulsion Energy =         218.74899789 hartrees
 There are       21 alpha and       21 beta electrons

Z-matrix Print:
$molecule
0 1
C 
H  1 1.098311
C  1 1.530519 2 129.419246
H  3 1.098327 1 129.432120 2 -0.002042 0
C  1 1.530519 2 129.419246 3 80.704158 0
H  5 1.098327 1 129.432120 2 0.002042 0
C  5 1.562400 1 90.001952 2 151.654099 0
H  7 1.098327 5 132.822761 1 -149.998728 0
C  7 1.530519 5 90.001952 1 0.000000 0
H  9 1.098311 7 129.419246 5 -151.654099 0
C  9 1.530519 7 60.025615 5 89.998872 0
H  11 1.098327 9 129.432120 7 118.349071 0
$end

 -----------------------------------------------------------------------
                  END OF GEOMETRY OPTIMIZER USING LIBOPT3               
 -----------------------------------------------------------------------
 Total job time:  32.08s(wall), 127.96s(cpu) 
 Thu Jul 27 11:56:42 2023

        *************************************************************
        *                                                           *
        *  Thank you very much for using Q-Chem.  Have a nice day.  *
        *                                                           *
        *************************************************************


