12
Properties=species:S:1:pos:R:3:forces:R:3 energy=-6307.307321863041 pbc="F F F"
C        0.44179163      -0.76555554       0.78119986      -0.00053993      -0.00013370      -0.00173807
C        0.44179163       0.76555554       0.78119986      -0.00053993       0.00013370      -0.00173807
C       -0.88350523       0.00000000       0.78125200       0.00134726       0.00000000      -0.00107472
C        0.44179163       0.76555554      -0.78119986      -0.00053993       0.00013370       0.00173807
C        0.44179163      -0.76555554      -0.78119986      -0.00053993      -0.00013370       0.00173807
C       -0.88350523       0.00000000      -0.78125200       0.00134726       0.00000000       0.00107472
H        0.84440965      -1.46330632       1.52776879       0.00061192      -0.00078162       0.00159408
H        0.84440965       1.46330632       1.52776879       0.00061192       0.00078162       0.00159408
H       -1.68888732      -0.00000000       1.52800996      -0.00149638       0.00000000       0.00106444
H        0.84440965       1.46330632      -1.52776879       0.00061192       0.00078162      -0.00159408
H        0.84440965      -1.46330632      -1.52776879       0.00061192      -0.00078162      -0.00159408
H       -1.68888732       0.00000000      -1.52800996      -0.00149638       0.00000000      -0.00106444
