12
Properties=species:S:1:pos:R:3:forces:R:3 energy=-6299.520174459302 pbc="F F F"
C        0.44009306      -0.75789134       0.77428841      -0.00209288      -0.00243741       0.00141925
C        0.44009306       0.75789134       0.77428841      -0.00209288       0.00243741       0.00141925
C       -0.86845052       0.00000000       0.77069740       0.00202603       0.00000000      -0.00398007
C        0.44009306       0.75789134      -0.77428841      -0.00209288       0.00243741      -0.00141925
C        0.44009306      -0.75789134      -0.77428841      -0.00209288      -0.00243741      -0.00141925
C       -0.86845052      -0.00000000      -0.77069740       0.00202603       0.00000000       0.00398007
H        0.83779672      -1.44753538       1.50154429       0.00072505       0.00059135       0.00016969
H        0.83779672       1.44753538       1.50154429       0.00072505      -0.00059135       0.00016969
H       -1.68730904       0.00000000       1.47101510       0.00070448       0.00000000       0.00028796
H        0.83779672       1.44753538      -1.50154429       0.00072505      -0.00059135      -0.00016969
H        0.83779672      -1.44753538      -1.50154429       0.00072505       0.00059135      -0.00016969
H       -1.68730904      -0.00000000      -1.47101510       0.00070448      -0.00000000      -0.00028796
