                  Welcome to Q-Chem
     A Quantum Leap Into The Future Of Chemistry


 Q-Chem 6.0 (devel), Q-Chem, Inc., Pleasanton, CA (2022)

 E. Epifanovsky,  A. T. B. Gilbert,  Xintian Feng,  Joonho Lee,  Yuezhi Mao,  
 N. Mardirossian,  P. Pokhilko,  A. White,  M. Wormit,  M. P. Coons,  
 A. L. Dempwolff,  Zhengting Gan,  D. Hait,  P. R. Horn,  L. D. Jacobson,  
 I. Kaliman,  J. Kussmann,  A. W. Lange,  Ka Un Lao,  D. S. Levine,  Jie Liu,  
 S. C. McKenzie,  A. F. Morrison,  K. Nanda,  F. Plasser,  D. R. Rehn,  
 M. L. Vidal,  Zhi-Qiang You,  Ying Zhu,  B. Alam,  B. Albrecht,  
 A. Aldossary,  E. Alguire,  J. H. Andersen,  V. Athavale,  D. Barton,  
 K. Begam,  A. Behn,  N. Bellonzi,  Y. A. Bernard,  E. J. Berquist,  
 H. Burton,  A. Carreras,  K. Carter-Fenk,  Romit Chakraborty,  
 Chandrima Chakravarty,  Junhan Chen,  A. D. Chien,  K. D. Closser,  
 V. Cofer-Shabica,  L. Cunha,  S. Dasgupta,  Jia Deng,  M. de Wergifosse,  
 M. Diedenhofen,  Hainam Do,  S. Ehlert,  Po-Tung Fang,  S. Fatehi,  
 Qingguo Feng,  T. Friedhoff,  B. Ganoe,  J. Gayvert,  Qinghui Ge,  
 G. Gidofalvi,  M. Goldey,  J. Gomes,  C. Gonzalez-Espinoza,  S. Gulania,  
 A. Gunina,  J. A. Gyamfi,  M. W. D. Hanson-Heine,  P. H. P. Harbach,  
 A. W. Hauser,  M. F. Herbst,  M. Hernandez Vera,  M. Hodecker,  
 Z. C. Holden,  S. Houck,  Xunkun Huang,  Kerwin Hui,  B. C. Huynh,  
 K. Ikeda,  M. Ivanov,  Hyunjun Ji,  Zuxin Jin,  Hanjie Jiang,  B. Kaduk,  
 S. Kaehler,  R. Kang,  K. Khistyaev,  Jaehoon Kim,  Yongbin Kim,  
 P. Klunzinger,  Z. Koczor-Benda,  Joong Hoon Koh,  D. Kosenkov,  
 Saikiran Kotaru,  L. Koulias,  T. Kowalczyk,  C. M. Krauter,  K. Kue,  
 A. Kunitsa,  T. Kus,  A. Landau,  K. V. Lawler,  D. Lefrancois,  S. Lehtola,  
 Rain Li,  Shaozhi Li,  Yi-Pei Li,  Jiashu Liang,  M. Liebenthal,  
 Hung-Hsuan Lin,  You-Sheng Lin,  Fenglai Liu,  Kuan-Yu Liu,  
 M. Loipersberger,  A. Luenser,  C. Malbon,  A. Manjanath,  P. Manohar,  
 E. Mansoor,  S. F. Manzer,  Shan-Ping Mao,  A. V. Marenich,  T. Markovich,  
 S. Mason,  F. Matz,  S. A. Maurer,  P. F. McLaughlin,  M. F. S. J. Menger,  
 J.-M. Mewes,  S. A. Mewes,  P. Morgante,  Mohammad Mostafanejad,  
 J. W. Mullinax,  K. J. Oosterbaan,  G. Paran,  V. Parravicini,  
 Alexander C. Paul,  Suranjan K. Paul,  F. Pavosevic,  Zheng Pei,  S. Prager,  
 E. I. Proynov,  E. Ramos,  B. Rana,  A. E. Rask,  A. Rettig,  R. M. Richard,  
 F. Rob,  E. Rossomme,  T. Scheele,  M. Scheurer,  M. Schneider,  
 P. E. Schneider,  N. Sergueev,  S. M. Sharada,  Hengyuan Shen,  
 W. Skomorowski,  D. W. Small,  C. J. Stein,  Yingli Su,  Yu-Chuan Su,  
 E. J. Sundstrom,  Zhen Tao,  J. Thirman,  Hung-Yi Tsai,  T. Tsuchimochi,  
 N. M. Tubman,  C. Utku,  S. P. Veccham,  O. Vydrov,  J. Wenzel,  
 Jonathan Wong,  J. Witte,  A. Yamada,  Chou-Hsun Yang,  Kun Yao,  
 S. Yeganeh,  S. R. Yost,  A. Zech,  F. Zeller,  Igor Ying Zhang,  
 Xing Zhang,  Yu Zhang,  D. Zuev,  A. Aspuru-Guzik,  A. T. Bell,  
 N. A. Besley,  K. B. Bravaya,  B. R. Brooks,  D. Casanova,  Jeng-Da Chai,  
 Hsing-Ta Chen,  S. Coriani,  C. J. Cramer,  A. E. DePrince, III,  
 R. A. DiStasio Jr.,  A. Dreuw,  B. D. Dunietz,  T. R. Furlani,  
 W. A. Goddard III,  S. Grimme,  S. Hammes-Schiffer,  T. Head-Gordon,  
 W. J. Hehre,  Chao-Ping Hsu,  T.-C. Jagau,  Yousung Jung,  A. Klamt,  
 Jing Kong,  D. S. Lambrecht,  Xiangyuan Li,  WanZhen Liang,  N. J. Mayhall,  
 C. W. McCurdy,  J. B. Neaton,  T. Neudecker,  C. Ochsenfeld,  
 J. A. Parkhill,  R. Peverati,  V. A. Rassolov,  Haisheng Ren,  Yihan Shao,  
 L. V. Slipchenko,  R. P. Steele,  J. E. Subotnik,  A. J. W. Thom,  
 A. Tkatchenko,  D. G. Truhlar,  T. Van Voorhis,  Fan Wang,  
 T. A. Wesolowski,  K. B. Whaley,  H. L. Woodcock III,  P. M. Zimmerman,  
 S. Faraji,  P. M. W. Gill,  M. Head-Gordon,  J. M. Herbert,  A. I. Krylov

 Contributors to earlier versions of Q-Chem not listed above: 
 R. D. Adamson,  B. Austin,  R. Baer,  J. Baker,  G. J. O. Beran,  
 K. Brandhorst,  S. T. Brown,  E. F. C. Byrd,  Arup K. Chakraborty,  
 G. K. L. Chan,  Chun-Min Chang,  Yunqing Chen,  C.-L. Cheng,  
 Siu Hung Chien,  D. M. Chipman,  D. L. Crittenden,  H. Dachsel,  
 R. J. Doerksen,  A. D. Dutoi,  R. G. Edgar,  J. Fosso-Tande,  
 L. Fusti-Molnar,  D. Ghosh,  A. Ghysels,  A. Golubeva-Zadorozhnaya,  
 J. Gonthier,  M. S. Gordon,  S. R. Gwaltney,  G. Hawkins,  J. E. Herr,  
 A. Heyden,  S. Hirata,  E. G. Hohenstein,  G. Kedziora,  F. J. Keil,  
 C. Kelley,  Jihan Kim,  R. A. King,  R. Z. Khaliullin,  P. P. Korambath,  
 W. Kurlancheek,  A. Laurent,  A. M. Lee,  M. S. Lee,  S. V. Levchenko,  
 Ching Yeh Lin,  D. Liotard,  E. Livshits,  R. C. Lochan,  I. Lotan,  
 L. A. Martinez-Martinez,  P. E. Maslen,  N. Nair,  D. P. O'Neill,  
 D. Neuhauser,  E. Neuscamman,  C. M. Oana,  R. Olivares-Amaya,  R. Olson,  
 T. M. Perrine,  B. Peters,  P. A. Pieniazek,  A. Prociuk,  Y. M. Rhee,  
 J. Ritchie,  M. A. Rohrdanz,  E. Rosta,  N. J. Russ,  H. F. Schaefer III,  
 M. W. Schmidt,  N. E. Schultz,  S. Sharma,  N. Shenvi,  C. D. Sherrill,  
 A. C. Simmonett,  A. Sodt,  T. Stein,  D. Stuck,  K. S. Thanthiriwatte,  
 V. Vanovschi,  L. Vogt,  Tao Wang,  A. Warshel,  M. A. Watson,  
 C. F. Williams,  Q. Wu,  X. Xu,  Jun Yang,  W. Zhang,  Yan Zhao

   Please cite Q-Chem as follows:
  "Software for the frontiers of quantum chemistry:
   An overview of developments in the Q-Chem 5 package"
   J. Chem. Phys. 155, 084801 (2021)
   https://doi.org/10.1063/5.0055522 (open access)

 Q-Chem 6.0.0 for Intel X86 EM64T Linux

 Parts of Q-Chem use Armadillo 9.900.5 (Nocturnal Misbehaviour).
 http://arma.sourceforge.net/

 Q-Chem begins on Wed Aug  2 11:43:44 2023  

 Host: 
0

     Scratch files written to /mnt/scratch/hwang/qchem362311//
 Processing $rem in /opt/qchem-6.0.0/config/preferences:
 Processing $rem in /home/hwang/.qchemrc:

 Checking the input file for inconsistencies... 	...done.

--------------------------------------------------------------
User input:
--------------------------------------------------------------
$comment
   ASE generated input file
$end

$rem
   METHOD                      PBE
   BASIS                       CC-PVDZ
   JOBTYPE                     FREQ
   DFT_D                       D3_BJ
   VIBMAN_PRINT                7
   SYM_IGNORE                  TRUE
$end

$molecule
   0 1
   C  0.300129  0.858570  1.230637
   C  0.230639  -0.693180  1.377448
   C  -0.573009  0.787689  -0.054832
   C  -0.573009  -0.787689  0.054832
   C  0.230639  0.693180  -1.377448
   C  0.300129  -0.858570  -1.230637
   H  1.313511  1.281771  1.070880
   H  -0.170199  1.408920  2.068540
   H  -0.350308  -1.014571  2.264280
   H  1.197498  -1.237838  1.384041
   H  -1.495231  1.399803  -0.062301
   H  -1.495231  -1.399803  0.062301
   H  1.197498  1.237838  -1.384041
   H  -0.350308  1.014571  -2.264280
   H  1.313511  -1.281771  -1.070880
   H  -0.170199  -1.408920  -2.068540
$end

--------------------------------------------------------------
 Adding empirical dispersion correction 
 ----------------------------------------------------------------
 Doing -D3(BJ) with
 s6  =   1.00000
 s8  =   0.78750
 a1  =   0.42890
 a2  =   4.44070
 -D3 energy without 3body term =     -0.0134555584 hartrees
 ----------------------------------------------------------------
             Standard Nuclear Orientation (Angstroms)
    I     Atom           X                Y                Z
 ----------------------------------------------------------------
    1      C       0.3001290000     0.8585700000     1.2306370000
    2      C       0.2306390000    -0.6931800000     1.3774480000
    3      C      -0.5730090000     0.7876890000    -0.0548320000
    4      C      -0.5730090000    -0.7876890000     0.0548320000
    5      C       0.2306390000     0.6931800000    -1.3774480000
    6      C       0.3001290000    -0.8585700000    -1.2306370000
    7      H       1.3135110000     1.2817710000     1.0708800000
    8      H      -0.1701990000     1.4089200000     2.0685400000
    9      H      -0.3503080000    -1.0145710000     2.2642800000
   10      H       1.1974980000    -1.2378380000     1.3840410000
   11      H      -1.4952310000     1.3998030000    -0.0623010000
   12      H      -1.4952310000    -1.3998030000     0.0623010000
   13      H       1.1974980000     1.2378380000    -1.3840410000
   14      H      -0.3503080000     1.0145710000    -2.2642800000
   15      H       1.3135110000    -1.2817710000    -1.0708800000
   16      H      -0.1701990000    -1.4089200000    -2.0685400000
 ----------------------------------------------------------------
 Nuclear Repulsion Energy =         242.00499237 hartrees
 There are       23 alpha and       23 beta electrons
 Requested basis set is cc-pVDZ
 There are 66 shells and 134 basis functions

 Total QAlloc Memory Limit   2000 MB
 Mega-Array Size       204 MB
 MEM_STATIC part       192 MB

 A cutoff of  1.0D-12 yielded   2201 shell pairs
 There are      9137 function pairs (      9992 Cartesian)
 Smallest overlap matrix eigenvalue = 1.08E-03
 Guess from superposition of atomic densities
 Warning:  Energy on first SCF cycle will be non-variational
 SAD guess density has 46.000000 electrons

 -----------------------------------------------------------------------
  General SCF calculation program by
  Eric Jon Sundstrom, Paul Horn, Yuezhi Mao, Dmitri Zuev, Alec White,
  David Stuck, Shaama M.S., Shane Yost, Joonho Lee, David Small,
  Daniel Levine, Susi Lehtola, Hugh Burton, Evgeny Epifanovsky,
  Bang C. Huynh
 -----------------------------------------------------------------------
 Exchange:  PBE      Correlation:  PBE
 Using SG-1 standard quadrature grid
 Dispersion:   Grimme D3
 using 4 threads for integral computing
 -------------------------------------------------------
 OpenMP Integral computing Module                
 Release: version 1.0, May 2013, Q-Chem Inc. Pittsburgh 
 -------------------------------------------------------
 A restricted SCF calculation will be
 performed using DIIS
 SCF converges when DIIS error is below 1.0e-08
 ---------------------------------------
  Cycle       Energy         DIIS error
 ---------------------------------------
    1    -235.1480106118      5.99e-02  
    2    -234.0890745259      8.76e-03  
    3    -233.7690176766      1.46e-02  
    4    -234.2918907754      1.19e-03  
    5    -234.2945181223      4.64e-04  
    6    -234.2949359348      1.64e-04  
    7    -234.2949953861      2.57e-05  
    8    -234.2949971293      5.30e-06  
    9    -234.2949972034      9.35e-07  
   10    -234.2949972053      3.60e-07  
   11    -234.2949972056      1.19e-07  
   12    -234.2949972056      7.21e-09  Convergence criterion met
 ---------------------------------------
 SCF time:   CPU 15.67s  wall 4.00s 
 SCF   energy in the final basis set =     -234.2949972056
 Total energy in the final basis set =     -234.2949972056

 --------------------------------------------------------------

                    Orbital Energies (a.u.)
 --------------------------------------------------------------

 Alpha MOs
 -- Occupied --
 -9.8935  -9.8935  -9.8908  -9.8908  -9.8905  -9.8905  -0.7880  -0.6728
 -0.6050  -0.5499  -0.5269  -0.4455  -0.4413  -0.4037  -0.3937  -0.3581
 -0.3315  -0.2994  -0.2968  -0.2825  -0.2553  -0.2378  -0.2288
 -- Virtual --
  0.0302   0.0462   0.0586   0.0689   0.0890   0.0895   0.1049   0.1140
  0.1156   0.1439   0.1619   0.1727   0.1813   0.1884   0.2212   0.3121
  0.3214   0.3309   0.3769   0.4000   0.4275   0.4485   0.4572   0.4711
  0.4759   0.5001   0.5032   0.5227   0.5314   0.5585   0.5622   0.5981
  0.6009   0.6096   0.6227   0.6269   0.6319   0.6372   0.6488   0.6642
  0.6688   0.6717   0.6891   0.7403   0.7669   0.9531   1.0101   1.0417
  1.0533   1.0942   1.1174   1.1252   1.1514   1.2357   1.2661   1.3141
  1.3593   1.3605   1.3688   1.3925   1.4318   1.4503   1.4586   1.4842
  1.5286   1.5658   1.5732   1.5852   1.5978   1.6038   1.6153   1.6177
  1.6324   1.6447   1.6552   1.6718   1.6979   1.7065   1.7539   1.7812
  1.8053   1.8361   1.8536   1.8661   1.8747   1.9209   1.9333   1.9338
  2.0041   2.0237   2.0262   2.0263   2.0411   2.0702   2.1107   2.1311
  2.1513   2.1718   2.2827   2.3251   2.3371   2.3403   2.3816   2.4132
  2.4292   2.4462   2.5171   2.5957   2.6333   2.6924   2.9842
 --------------------------------------------------------------

          Ground-State Mulliken Net Atomic Charges

     Atom                 Charge (a.u.)
  ----------------------------------------
      1 C                     0.028350
      2 C                     0.035218
      3 C                    -0.086097
      4 C                    -0.086097
      5 C                     0.035218
      6 C                     0.028350
      7 H                     0.010714
      8 H                     0.017962
      9 H                     0.017218
     10 H                     0.010313
     11 H                    -0.033678
     12 H                    -0.033678
     13 H                     0.010313
     14 H                     0.017218
     15 H                     0.010714
     16 H                     0.017962
  ----------------------------------------
  Sum of atomic charges =     0.000000

 -----------------------------------------------------------------
                    Cartesian Multipole Moments
 -----------------------------------------------------------------
    Charge (ESU x 10^10)
                -0.0000
    Dipole Moment (Debye)
         X      -0.1361      Y       0.0000      Z       0.0000
       Tot       0.1361
    Quadrupole Moments (Debye-Ang)
        XX     -38.1145     XY       0.0000     YY     -39.1960
        XZ       0.0000     YZ       0.1437     ZZ     -38.4678
    Octopole Moments (Debye-Ang^2)
       XXX      -0.7084    XXY       0.0000    XYY      -1.0229
       YYY       0.0000    XXZ      -0.0000    XYZ      -0.2722
       YYZ      -0.0000    XZZ      -3.2798    YZZ       0.0000
       ZZZ       0.0000
    Hexadecapole Moments (Debye-Ang^3)
      XXXX    -121.1974   XXXY      -0.0000   XXYY     -56.4734
      XYYY       0.0000   YYYY    -237.9686   XXXZ       0.0000
      XXYZ      -1.4436   XYYZ       0.0000   YYYZ      -1.7322
      XXZZ     -82.8386   XYZZ       0.0000   YYZZ    -100.0615
      XZZZ       0.0000   YZZZ      -1.6323   ZZZZ    -368.0189
 -----------------------------------------------------------------
 Calculating MO derivatives via CPSCF
    1     0    51    0.0253804  
    2     0    51    0.0024162  
    3     0    51    0.0001761  
    4    48     3    0.0000025  
    5    51     0    0.0000000  Converged
 ------------------------------------------------------------------------------
                     AOints        : Timing summary (seconds)
 ------------------------------------------------------------------------------
     job step          cpu (% of tot)      sys (% of tot)     wall (% of tot)
 ------------------------------------------------------------------------------
  AOints            0.3643E+01 ( 2.7)   0.4000E-05 (11.1)   0.9195E+00 ( 2.7)
 ------------------------------------------------------------------------------
   Grand Totals     0.1334E+03          0.3600E-04          0.3347E+02
 ------------------------------------------------------------------------------
 Polarizability Matrix (a.u.)
            1           2           3
    1 -58.1995401   0.0000000   0.0000000
    2   0.0000000 -62.4992717  -0.1816468
    3   0.0000000  -0.1816468 -68.0956743
 Calculating analytic Hessian of the SCF energy

 Direct stationary perturbation theory relativistic correction:

 rels  =       0.050877468402
 relv  =      -0.258776376221
 rel2e =       0.000000000000
 E_rel =      -0.207898907819


 Mass-Weighted Hessian Matrix:


     0.043860    0.003951   -0.005609   -0.005117    0.000148    0.001585
     0.003951    0.036969    0.007187   -0.000699   -0.014183    0.000637
    -0.005609    0.007187    0.038887    0.001585    0.001182   -0.004065
    -0.005117   -0.000699    0.001585    0.044111   -0.005571   -0.004858
     0.000148   -0.014183    0.001182   -0.005571    0.035384   -0.006126
     0.001585    0.000637   -0.004065   -0.004858   -0.006126    0.040646
    -0.009068    0.000499   -0.003989   -0.000753    0.001208   -0.001794
    -0.000103   -0.002992   -0.000914    0.001232   -0.003194    0.002228
    -0.003641   -0.000398   -0.011521   -0.002420    0.002035   -0.001980
    -0.000886   -0.001648   -0.001733   -0.008834   -0.000895   -0.003934
    -0.001638   -0.003735   -0.001970   -0.000162   -0.002997   -0.000345
    -0.002184   -0.001628   -0.001375   -0.003709   -0.000870   -0.012218
     0.000899   -0.000055   -0.001036   -0.000056   -0.000127    0.000136
     0.000116    0.000081   -0.000323    0.000127   -0.000072   -0.000027
     0.000789    0.000126   -0.001945   -0.000136   -0.000027   -0.000011
    -0.000046    0.000129    0.000098    0.000899   -0.000116   -0.000789
    -0.000129   -0.000020    0.000055    0.000055    0.000081    0.000126
    -0.000098    0.000055    0.000019    0.001036   -0.000323   -0.001945
    -0.073549   -0.024650    0.010714    0.000976    0.000879   -0.000256
    -0.024340   -0.022024    0.004665   -0.006921   -0.001757    0.001913
     0.010721    0.004499   -0.013621    0.001431    0.000156   -0.001050
    -0.026660    0.016318    0.025219   -0.000498   -0.000659    0.000049
     0.016218   -0.028910   -0.027560    0.003705   -0.003817   -0.005670
     0.025101   -0.027616   -0.054957   -0.001304    0.001368    0.001714
    -0.000872    0.000249    0.000567   -0.033924   -0.010944    0.032032
    -0.004698   -0.002710    0.006270   -0.010925   -0.017075    0.016714
    -0.000628   -0.000481    0.000663    0.031960    0.016745   -0.059463
     0.001526   -0.001202   -0.000108   -0.068439    0.030713    0.001090
     0.006610   -0.002369   -0.001064    0.030322   -0.029205   -0.001003
     0.000149    0.000162   -0.000742    0.001273   -0.000890   -0.011769
    -0.002559    0.001986    0.001044   -0.000211    0.000044   -0.000216
    -0.001733    0.000843    0.000431    0.000301   -0.000460    0.000132
    -0.004917    0.003274    0.000223   -0.000343    0.000435   -0.000763
    -0.000072   -0.000079   -0.000278   -0.002190   -0.001708    0.001209
    -0.000408   -0.000596   -0.000240    0.001022    0.000287   -0.000523
    -0.000368   -0.000548   -0.000785   -0.005100   -0.003483    0.000545
     0.000402    0.000136   -0.000604    0.000055    0.000030   -0.000098
    -0.000015    0.000176    0.000204   -0.000137    0.000034    0.000108
     0.000541    0.000099    0.000664   -0.000020    0.000133    0.000094
    -0.000492   -0.000188    0.000458    0.000032    0.000090   -0.000094
     0.000116   -0.000041   -0.000707   -0.000040   -0.000041   -0.000061
     0.001106   -0.000060   -0.000684   -0.000080   -0.000063    0.000113
    -0.000013   -0.000032   -0.000067    0.000402   -0.000202   -0.000683
     0.000147    0.000023   -0.000089    0.000007    0.000205   -0.000096
    -0.000001   -0.000073    0.000080    0.000428   -0.000121    0.000797
     0.000005   -0.000052   -0.000085   -0.000582    0.000231    0.000278
     0.000009   -0.000019    0.000084   -0.000021    0.000003    0.000588
    -0.000099    0.000108    0.000148    0.001093   -0.000034   -0.000703


    -0.009068   -0.000103   -0.003641   -0.000886   -0.001638   -0.002184
     0.000499   -0.002992   -0.000398   -0.001648   -0.003735   -0.001628
    -0.003989   -0.000914   -0.011521   -0.001733   -0.001970   -0.001375
    -0.000753    0.001232   -0.002420   -0.008834   -0.000162   -0.003709
     0.001208   -0.003194    0.002035   -0.000895   -0.002997   -0.000870
    -0.001794    0.002228   -0.001980   -0.003934   -0.000345   -0.012218
     0.043287   -0.011981    0.000266   -0.004311   -0.000886    0.000138
    -0.011981    0.035867    0.000146    0.000886   -0.011972    0.000735
     0.000266    0.000146    0.035643   -0.000138    0.000735   -0.001968
    -0.004311    0.000886   -0.000138    0.043287    0.011981   -0.000266
    -0.000886   -0.011972    0.000735    0.011981    0.035867    0.000146
     0.000138    0.000735   -0.001968   -0.000266    0.000146    0.035643
    -0.008834    0.000162    0.003709   -0.000753   -0.001232    0.002420
     0.000895   -0.002997   -0.000870   -0.001208   -0.003194    0.002035
     0.003934   -0.000345   -0.012218    0.001794    0.002228   -0.001980
    -0.000886    0.001638    0.002184   -0.009068    0.000103    0.003641
     0.001648   -0.003735   -0.001628   -0.000499   -0.002992   -0.000398
     0.001733   -0.001970   -0.001375    0.003989   -0.000914   -0.011521
    -0.003472   -0.001456    0.000896   -0.000566   -0.000004   -0.000337
     0.000879   -0.000342   -0.000638   -0.000351   -0.000308   -0.000369
    -0.006237   -0.002318    0.000911   -0.000374   -0.000504   -0.000582
     0.002272   -0.002064   -0.004097   -0.000323   -0.000294    0.000099
    -0.000816    0.000388    0.000976   -0.000326   -0.000906    0.000184
     0.004048   -0.002555   -0.004622   -0.000307   -0.000118    0.000062
    -0.000289    0.000149    0.000178    0.002546    0.000992   -0.004086
     0.000117   -0.000729   -0.000107    0.001433    0.000286   -0.001652
    -0.000247    0.000226    0.000111    0.004489    0.001329   -0.005100
    -0.000468   -0.000157   -0.000326   -0.003187    0.001910    0.000558
     0.000358   -0.000259    0.000391   -0.001596    0.000302    0.000698
    -0.000549    0.000584   -0.000864   -0.005721    0.003250    0.000021
    -0.065363    0.033609   -0.000267    0.001786   -0.000700    0.000014
     0.034053   -0.035909    0.000676    0.005698   -0.000398   -0.000230
    -0.000355    0.000646   -0.011776   -0.000433   -0.000131   -0.000868
     0.001786    0.000700   -0.000014   -0.065363   -0.033609    0.000267
    -0.005698   -0.000398   -0.000230   -0.034053   -0.035909    0.000676
     0.000433   -0.000131   -0.000868    0.000355    0.000646   -0.011776
    -0.003187   -0.001910   -0.000558   -0.000468    0.000157    0.000326
     0.001596    0.000302    0.000698   -0.000358   -0.000259    0.000391
     0.005721    0.003250    0.000021    0.000549    0.000584   -0.000864
     0.002546   -0.000992    0.004086   -0.000289   -0.000149   -0.000178
    -0.001433    0.000286   -0.001652   -0.000117   -0.000729   -0.000107
    -0.004489    0.001329   -0.005100    0.000247    0.000226    0.000111
    -0.000566    0.000004    0.000337   -0.003472    0.001456   -0.000896
     0.000351   -0.000308   -0.000369   -0.000879   -0.000342   -0.000638
     0.000374   -0.000504   -0.000582    0.006237   -0.002318    0.000911
    -0.000323    0.000294   -0.000099    0.002272    0.002064    0.004097
     0.000326   -0.000906    0.000184    0.000816    0.000388    0.000976
     0.000307   -0.000118    0.000062   -0.004048   -0.002555   -0.004622


     0.000899    0.000116    0.000789   -0.000046   -0.000129   -0.000098
    -0.000055    0.000081    0.000126    0.000129   -0.000020    0.000055
    -0.001036   -0.000323   -0.001945    0.000098    0.000055    0.000019
    -0.000056    0.000127   -0.000136    0.000899    0.000055    0.001036
    -0.000127   -0.000072   -0.000027   -0.000116    0.000081   -0.000323
     0.000136   -0.000027   -0.000011   -0.000789    0.000126   -0.001945
    -0.008834    0.000895    0.003934   -0.000886    0.001648    0.001733
     0.000162   -0.002997   -0.000345    0.001638   -0.003735   -0.001970
     0.003709   -0.000870   -0.012218    0.002184   -0.001628   -0.001375
    -0.000753   -0.001208    0.001794   -0.009068   -0.000499    0.003989
    -0.001232   -0.003194    0.002228    0.000103   -0.002992   -0.000914
     0.002420    0.002035   -0.001980    0.003641   -0.000398   -0.011521
     0.044111    0.005571    0.004858   -0.005117    0.000699   -0.001585
     0.005571    0.035384   -0.006126   -0.000148   -0.014183    0.001182
     0.004858   -0.006126    0.040646   -0.001585    0.000637   -0.004065
    -0.005117   -0.000148   -0.001585    0.043860   -0.003951    0.005609
     0.000699   -0.014183    0.000637   -0.003951    0.036969    0.007187
    -0.001585    0.001182   -0.004065    0.005609    0.007187    0.038887
     0.000402    0.000202    0.000683   -0.000013    0.000032    0.000067
    -0.000007    0.000205   -0.000096   -0.000147    0.000023   -0.000089
    -0.000428   -0.000121    0.000797    0.000001   -0.000073    0.000080
    -0.000582   -0.000231   -0.000278    0.000005    0.000052    0.000085
     0.000021    0.000003    0.000588   -0.000009   -0.000019    0.000084
    -0.001093   -0.000034   -0.000703    0.000099    0.000108    0.000148
     0.000032   -0.000090    0.000094   -0.000492    0.000188   -0.000458
     0.000040   -0.000041   -0.000061   -0.000116   -0.000041   -0.000707
     0.000080   -0.000063    0.000113   -0.001106   -0.000060   -0.000684
     0.000055   -0.000030    0.000098    0.000402   -0.000136    0.000604
     0.000137    0.000034    0.000108    0.000015    0.000176    0.000204
     0.000020    0.000133    0.000094   -0.000541    0.000099    0.000664
    -0.002190    0.001708   -0.001209   -0.000072    0.000079    0.000278
    -0.001022    0.000287   -0.000523    0.000408   -0.000596   -0.000240
     0.005100   -0.003483    0.000545    0.000368   -0.000548   -0.000785
    -0.000211   -0.000044    0.000216   -0.002559   -0.001986   -0.001044
    -0.000301   -0.000460    0.000132    0.001733    0.000843    0.000431
     0.000343    0.000435   -0.000763    0.004917    0.003274    0.000223
    -0.068439   -0.030713   -0.001090    0.001526    0.001202    0.000108
    -0.030322   -0.029205   -0.001003   -0.006610   -0.002369   -0.001064
    -0.001273   -0.000890   -0.011769   -0.000149    0.000162   -0.000742
    -0.033924    0.010944   -0.032032   -0.000872   -0.000249   -0.000567
     0.010925   -0.017075    0.016714    0.004698   -0.002710    0.006270
    -0.031960    0.016745   -0.059463    0.000628   -0.000481    0.000663
     0.000976   -0.000879    0.000256   -0.073549    0.024650   -0.010714
     0.006921   -0.001757    0.001913    0.024340   -0.022024    0.004665
    -0.001431    0.000156   -0.001050   -0.010721    0.004499   -0.013621
    -0.000498    0.000659   -0.000049   -0.026660   -0.016318   -0.025219
    -0.003705   -0.003817   -0.005670   -0.016218   -0.028910   -0.027560
     0.001304    0.001368    0.001714   -0.025101   -0.027616   -0.054957


    -0.073549   -0.024340    0.010721   -0.026660    0.016218    0.025101
    -0.024650   -0.022024    0.004499    0.016318   -0.028910   -0.027616
     0.010714    0.004665   -0.013621    0.025219   -0.027560   -0.054957
     0.000976   -0.006921    0.001431   -0.000498    0.003705   -0.001304
     0.000879   -0.001757    0.000156   -0.000659   -0.003817    0.001368
    -0.000256    0.001913   -0.001050    0.000049   -0.005670    0.001714
    -0.003472    0.000879   -0.006237    0.002272   -0.000816    0.004048
    -0.001456   -0.000342   -0.002318   -0.002064    0.000388   -0.002555
     0.000896   -0.000638    0.000911   -0.004097    0.000976   -0.004622
    -0.000566   -0.000351   -0.000374   -0.000323   -0.000326   -0.000307
    -0.000004   -0.000308   -0.000504   -0.000294   -0.000906   -0.000118
    -0.000337   -0.000369   -0.000582    0.000099    0.000184    0.000062
     0.000402   -0.000007   -0.000428   -0.000582    0.000021   -0.001093
     0.000202    0.000205   -0.000121   -0.000231    0.000003   -0.000034
     0.000683   -0.000096    0.000797   -0.000278    0.000588   -0.000703
    -0.000013   -0.000147    0.000001    0.000005   -0.000009    0.000099
     0.000032    0.000023   -0.000073    0.000052   -0.000019    0.000108
     0.000067   -0.000089    0.000080    0.000085    0.000084    0.000148
     0.271890    0.092940   -0.037630   -0.011005   -0.005135    0.001092
     0.092940    0.081019   -0.014860    0.013412    0.005422   -0.002410
    -0.037630   -0.014860    0.050111    0.020504    0.008389   -0.002827
    -0.011005    0.013412    0.020504    0.095877   -0.058873   -0.092358
    -0.005135    0.005422    0.008389   -0.058873    0.109859    0.101552
     0.001092   -0.002410   -0.002827   -0.092358    0.101552    0.202143
     0.000603   -0.001081   -0.000052    0.001575    0.000670   -0.000422
     0.000656   -0.004388    0.001903   -0.000597    0.002256   -0.000523
    -0.000836   -0.000823   -0.000051   -0.000170    0.000257    0.001500
     0.000988    0.000454   -0.000321    0.000396   -0.001036   -0.000500
    -0.000398    0.002378   -0.000364    0.000632   -0.003890    0.001482
    -0.000227    0.000200    0.001063   -0.000291   -0.001048   -0.000085
    -0.001057    0.000554   -0.001530    0.001402   -0.000315    0.000337
    -0.001364   -0.000485   -0.000757    0.000453    0.000930    0.000765
    -0.001436    0.000954   -0.001802    0.000418   -0.000282    0.001650
     0.000209   -0.000340    0.000206   -0.000060   -0.000396    0.000114
    -0.000733   -0.000502   -0.000870   -0.000449   -0.000107   -0.000563
    -0.000111   -0.000834   -0.000061   -0.000229   -0.000848   -0.000105
     0.000851   -0.000056    0.000968    0.000257    0.000239   -0.000336
     0.000045    0.000041    0.000549    0.000385    0.000008    0.000129
    -0.001623   -0.000599   -0.000170   -0.000077   -0.000153    0.000271
     0.000325    0.000346    0.000032    0.000499    0.000021    0.000510
     0.000368    0.000005    0.000189   -0.000033    0.000226   -0.000628
     0.000370   -0.000121    0.000268   -0.000580    0.000487   -0.001230
     0.000134    0.000141    0.000147    0.000080   -0.000017    0.000051
    -0.000141   -0.000058    0.000085   -0.000209    0.000083   -0.000173
    -0.000147    0.000085   -0.000032   -0.000027    0.000082   -0.000035
     0.000080    0.000209    0.000027   -0.000041   -0.000002   -0.000082
     0.000017    0.000083    0.000082    0.000002   -0.000015   -0.000095
    -0.000051   -0.000173   -0.000035    0.000082   -0.000095    0.000093


    -0.000872   -0.004698   -0.000628    0.001526    0.006610    0.000149
     0.000249   -0.002710   -0.000481   -0.001202   -0.002369    0.000162
     0.000567    0.006270    0.000663   -0.000108   -0.001064   -0.000742
    -0.033924   -0.010925    0.031960   -0.068439    0.030322    0.001273
    -0.010944   -0.017075    0.016745    0.030713   -0.029205   -0.000890
     0.032032    0.016714   -0.059463    0.001090   -0.001003   -0.011769
    -0.000289    0.000117   -0.000247   -0.000468    0.000358   -0.000549
     0.000149   -0.000729    0.000226   -0.000157   -0.000259    0.000584
     0.000178   -0.000107    0.000111   -0.000326    0.000391   -0.000864
     0.002546    0.001433    0.004489   -0.003187   -0.001596   -0.005721
     0.000992    0.000286    0.001329    0.001910    0.000302    0.003250
    -0.004086   -0.001652   -0.005100    0.000558    0.000698    0.000021
     0.000032    0.000040    0.000080    0.000055    0.000137    0.000020
    -0.000090   -0.000041   -0.000063   -0.000030    0.000034    0.000133
     0.000094   -0.000061    0.000113    0.000098    0.000108    0.000094
    -0.000492   -0.000116   -0.001106    0.000402    0.000015   -0.000541
     0.000188   -0.000041   -0.000060   -0.000136    0.000176    0.000099
    -0.000458   -0.000707   -0.000684    0.000604    0.000204    0.000664
     0.000603    0.000656   -0.000836    0.000988   -0.000398   -0.000227
    -0.001081   -0.004388   -0.000823    0.000454    0.002378    0.000200
    -0.000052    0.001903   -0.000051   -0.000321   -0.000364    0.001063
     0.001575   -0.000597   -0.000170    0.000396    0.000632   -0.000291
     0.000670    0.002256    0.000257   -0.001036   -0.003890   -0.001048
    -0.000422   -0.000523    0.001500   -0.000500    0.001482   -0.000085
     0.122239    0.040890   -0.117721   -0.012736   -0.007557    0.020634
     0.040890    0.066800   -0.061340    0.007519    0.004052   -0.011292
    -0.117721   -0.061340    0.219802   -0.000892    0.000374    0.000351
    -0.012736    0.007519   -0.000892    0.252636   -0.115625   -0.002519
    -0.007557    0.004052    0.000374   -0.115625    0.106280   -0.000045
     0.020634   -0.011292    0.000351   -0.002519   -0.000045    0.044173
     0.000020    0.000307   -0.000013    0.000245    0.000464    0.000103
     0.000273    0.000043    0.000489    0.000652   -0.000255    0.000988
    -0.000186    0.000651   -0.000291   -0.000108    0.000877   -0.000434
     0.001353    0.000293    0.000266   -0.000865   -0.000538   -0.001044
    -0.000356    0.000872   -0.000744    0.000919   -0.000524    0.000548
     0.000430    0.000444    0.001667   -0.001407   -0.000926   -0.001503
     0.000058    0.000056    0.000067    0.000099   -0.000050    0.000160
     0.000186    0.000127    0.000220    0.000050   -0.000142    0.000005
    -0.000012   -0.000125    0.000012   -0.000160    0.000005   -0.000215
    -0.000072    0.000032   -0.000124    0.000058   -0.000186    0.000012
    -0.000032    0.000084    0.000136   -0.000056    0.000127   -0.000125
     0.000124    0.000136    0.000053   -0.000067    0.000220    0.000012
     0.000325   -0.000368   -0.000370    0.000851   -0.000045    0.001623
    -0.000346    0.000005   -0.000121    0.000056    0.000041   -0.000599
    -0.000032    0.000189    0.000268   -0.000968    0.000549   -0.000170
     0.000499    0.000033    0.000580    0.000257   -0.000385    0.000077
    -0.000021    0.000226    0.000487   -0.000239    0.000008   -0.000153
    -0.000510   -0.000628   -0.001230    0.000336    0.000129    0.000271


    -0.002559   -0.001733   -0.004917   -0.000072   -0.000408   -0.000368
     0.001986    0.000843    0.003274   -0.000079   -0.000596   -0.000548
     0.001044    0.000431    0.000223   -0.000278   -0.000240   -0.000785
    -0.000211    0.000301   -0.000343   -0.002190    0.001022   -0.005100
     0.000044   -0.000460    0.000435   -0.001708    0.000287   -0.003483
    -0.000216    0.000132   -0.000763    0.001209   -0.000523    0.000545
    -0.065363    0.034053   -0.000355    0.001786   -0.005698    0.000433
     0.033609   -0.035909    0.000646    0.000700   -0.000398   -0.000131
    -0.000267    0.000676   -0.011776   -0.000014   -0.000230   -0.000868
     0.001786    0.005698   -0.000433   -0.065363   -0.034053    0.000355
    -0.000700   -0.000398   -0.000131   -0.033609   -0.035909    0.000646
     0.000014   -0.000230   -0.000868    0.000267    0.000676   -0.011776
    -0.002190   -0.001022    0.005100   -0.000211   -0.000301    0.000343
     0.001708    0.000287   -0.003483   -0.000044   -0.000460    0.000435
    -0.001209   -0.000523    0.000545    0.000216    0.000132   -0.000763
    -0.000072    0.000408    0.000368   -0.002559    0.001733    0.004917
     0.000079   -0.000596   -0.000548   -0.001986    0.000843    0.003274
     0.000278   -0.000240   -0.000785   -0.001044    0.000431    0.000223
    -0.001057   -0.001364   -0.001436    0.000209   -0.000733   -0.000111
     0.000554   -0.000485    0.000954   -0.000340   -0.000502   -0.000834
    -0.001530   -0.000757   -0.001802    0.000206   -0.000870   -0.000061
     0.001402    0.000453    0.000418   -0.000060   -0.000449   -0.000229
    -0.000315    0.000930   -0.000282   -0.000396   -0.000107   -0.000848
     0.000337    0.000765    0.001650    0.000114   -0.000563   -0.000105
     0.000020    0.000273   -0.000186    0.001353   -0.000356    0.000430
     0.000307    0.000043    0.000651    0.000293    0.000872    0.000444
    -0.000013    0.000489   -0.000291    0.000266   -0.000744    0.001667
     0.000245    0.000652   -0.000108   -0.000865    0.000919   -0.001407
     0.000464   -0.000255    0.000877   -0.000538   -0.000524   -0.000926
     0.000103    0.000988   -0.000434   -0.001044    0.000548   -0.001503
     0.235100   -0.129727    0.001934    0.000396    0.001010   -0.000061
    -0.129727    0.122485   -0.000584   -0.001010    0.002569   -0.000119
     0.001934   -0.000584    0.046440    0.000061   -0.000119    0.000765
     0.000396   -0.001010    0.000061    0.235100    0.129727   -0.001934
     0.001010    0.002569   -0.000119    0.129727    0.122485   -0.000584
    -0.000061   -0.000119    0.000765   -0.001934   -0.000584    0.046440
    -0.000865   -0.000919    0.001407    0.000245   -0.000652    0.000108
     0.000538   -0.000524   -0.000926   -0.000464   -0.000255    0.000877
     0.001044    0.000548   -0.001503   -0.000103    0.000988   -0.000434
     0.001353    0.000356   -0.000430    0.000020   -0.000273    0.000186
    -0.000293    0.000872    0.000444   -0.000307    0.000043    0.000651
    -0.000266   -0.000744    0.001667    0.000013    0.000489   -0.000291
     0.000209    0.000733    0.000111   -0.001057    0.001364    0.001436
     0.000340   -0.000502   -0.000834   -0.000554   -0.000485    0.000954
    -0.000206   -0.000870   -0.000061    0.001530   -0.000757   -0.001802
    -0.000060    0.000449    0.000229    0.001402   -0.000453   -0.000418
     0.000396   -0.000107   -0.000848    0.000315    0.000930   -0.000282
    -0.000114   -0.000563   -0.000105   -0.000337    0.000765    0.001650


     0.000402   -0.000015    0.000541   -0.000492    0.000116    0.001106
     0.000136    0.000176    0.000099   -0.000188   -0.000041   -0.000060
    -0.000604    0.000204    0.000664    0.000458   -0.000707   -0.000684
     0.000055   -0.000137   -0.000020    0.000032   -0.000040   -0.000080
     0.000030    0.000034    0.000133    0.000090   -0.000041   -0.000063
    -0.000098    0.000108    0.000094   -0.000094   -0.000061    0.000113
    -0.003187    0.001596    0.005721    0.002546   -0.001433   -0.004489
    -0.001910    0.000302    0.003250   -0.000992    0.000286    0.001329
    -0.000558    0.000698    0.000021    0.004086   -0.001652   -0.005100
    -0.000468   -0.000358    0.000549   -0.000289   -0.000117    0.000247
     0.000157   -0.000259    0.000584   -0.000149   -0.000729    0.000226
     0.000326    0.000391   -0.000864   -0.000178   -0.000107    0.000111
    -0.068439   -0.030322   -0.001273   -0.033924    0.010925   -0.031960
    -0.030713   -0.029205   -0.000890    0.010944   -0.017075    0.016745
    -0.001090   -0.001003   -0.011769   -0.032032    0.016714   -0.059463
     0.001526   -0.006610   -0.000149   -0.000872    0.004698    0.000628
     0.001202   -0.002369    0.000162   -0.000249   -0.002710   -0.000481
     0.000108   -0.001064   -0.000742   -0.000567    0.006270    0.000663
     0.000851    0.000045   -0.001623    0.000325    0.000368    0.000370
    -0.000056    0.000041   -0.000599    0.000346    0.000005   -0.000121
     0.000968    0.000549   -0.000170    0.000032    0.000189    0.000268
     0.000257    0.000385   -0.000077    0.000499   -0.000033   -0.000580
     0.000239    0.000008   -0.000153    0.000021    0.000226    0.000487
    -0.000336    0.000129    0.000271    0.000510   -0.000628   -0.001230
     0.000058    0.000186   -0.000012   -0.000072   -0.000032    0.000124
     0.000056    0.000127   -0.000125    0.000032    0.000084    0.000136
     0.000067    0.000220    0.000012   -0.000124    0.000136    0.000053
     0.000099    0.000050   -0.000160    0.000058   -0.000056   -0.000067
    -0.000050   -0.000142    0.000005   -0.000186    0.000127    0.000220
     0.000160    0.000005   -0.000215    0.000012   -0.000125    0.000012
    -0.000865    0.000538    0.001044    0.001353   -0.000293   -0.000266
    -0.000919   -0.000524    0.000548    0.000356    0.000872   -0.000744
     0.001407   -0.000926   -0.001503   -0.000430    0.000444    0.001667
     0.000245   -0.000464   -0.000103    0.000020   -0.000307    0.000013
    -0.000652   -0.000255    0.000988   -0.000273    0.000043    0.000489
     0.000108    0.000877   -0.000434    0.000186    0.000651   -0.000291
     0.252636    0.115625    0.002519   -0.012736   -0.007519    0.000892
     0.115625    0.106280   -0.000045    0.007557    0.004052    0.000374
     0.002519   -0.000045    0.044173   -0.020634   -0.011292    0.000351
    -0.012736    0.007557   -0.020634    0.122239   -0.040890    0.117721
    -0.007519    0.004052   -0.011292   -0.040890    0.066800   -0.061340
     0.000892    0.000374    0.000351    0.117721   -0.061340    0.219802
     0.000988    0.000398    0.000227    0.000603   -0.000656    0.000836
    -0.000454    0.002378    0.000200    0.001081   -0.004388   -0.000823
     0.000321   -0.000364    0.001063    0.000052    0.001903   -0.000051
     0.000396   -0.000632    0.000291    0.001575    0.000597    0.000170
     0.001036   -0.003890   -0.001048   -0.000670    0.002256    0.000257
     0.000500    0.001482   -0.000085    0.000422   -0.000523    0.001500


    -0.000013    0.000147   -0.000001    0.000005    0.000009   -0.000099
    -0.000032    0.000023   -0.000073   -0.000052   -0.000019    0.000108
    -0.000067   -0.000089    0.000080   -0.000085    0.000084    0.000148
     0.000402    0.000007    0.000428   -0.000582   -0.000021    0.001093
    -0.000202    0.000205   -0.000121    0.000231    0.000003   -0.000034
    -0.000683   -0.000096    0.000797    0.000278    0.000588   -0.000703
    -0.000566    0.000351    0.000374   -0.000323    0.000326    0.000307
     0.000004   -0.000308   -0.000504    0.000294   -0.000906   -0.000118
     0.000337   -0.000369   -0.000582   -0.000099    0.000184    0.000062
    -0.003472   -0.000879    0.006237    0.002272    0.000816   -0.004048
     0.001456   -0.000342   -0.002318    0.002064    0.000388   -0.002555
    -0.000896   -0.000638    0.000911    0.004097    0.000976   -0.004622
     0.000976    0.006921   -0.001431   -0.000498   -0.003705    0.001304
    -0.000879   -0.001757    0.000156    0.000659   -0.003817    0.001368
     0.000256    0.001913   -0.001050   -0.000049   -0.005670    0.001714
    -0.073549    0.024340   -0.010721   -0.026660   -0.016218   -0.025101
     0.024650   -0.022024    0.004499   -0.016318   -0.028910   -0.027616
    -0.010714    0.004665   -0.013621   -0.025219   -0.027560   -0.054957
     0.000134   -0.000141   -0.000147    0.000080    0.000017   -0.000051
     0.000141   -0.000058    0.000085    0.000209    0.000083   -0.000173
     0.000147    0.000085   -0.000032    0.000027    0.000082   -0.000035
     0.000080   -0.000209   -0.000027   -0.000041    0.000002    0.000082
    -0.000017    0.000083    0.000082   -0.000002   -0.000015   -0.000095
     0.000051   -0.000173   -0.000035   -0.000082   -0.000095    0.000093
     0.000325   -0.000346   -0.000032    0.000499   -0.000021   -0.000510
    -0.000368    0.000005    0.000189    0.000033    0.000226   -0.000628
    -0.000370   -0.000121    0.000268    0.000580    0.000487   -0.001230
     0.000851    0.000056   -0.000968    0.000257   -0.000239    0.000336
    -0.000045    0.000041    0.000549   -0.000385    0.000008    0.000129
     0.001623   -0.000599   -0.000170    0.000077   -0.000153    0.000271
     0.000209    0.000340   -0.000206   -0.000060    0.000396   -0.000114
     0.000733   -0.000502   -0.000870    0.000449   -0.000107   -0.000563
     0.000111   -0.000834   -0.000061    0.000229   -0.000848   -0.000105
    -0.001057   -0.000554    0.001530    0.001402    0.000315   -0.000337
     0.001364   -0.000485   -0.000757   -0.000453    0.000930    0.000765
     0.001436    0.000954   -0.001802   -0.000418   -0.000282    0.001650
     0.000988   -0.000454    0.000321    0.000396    0.001036    0.000500
     0.000398    0.002378   -0.000364   -0.000632   -0.003890    0.001482
     0.000227    0.000200    0.001063    0.000291   -0.001048   -0.000085
     0.000603    0.001081    0.000052    0.001575   -0.000670    0.000422
    -0.000656   -0.004388    0.001903    0.000597    0.002256   -0.000523
     0.000836   -0.000823   -0.000051    0.000170    0.000257    0.001500
     0.271890   -0.092940    0.037630   -0.011005    0.005135   -0.001092
    -0.092940    0.081019   -0.014860   -0.013412    0.005422   -0.002410
     0.037630   -0.014860    0.050111   -0.020504    0.008389   -0.002827
    -0.011005   -0.013412   -0.020504    0.095877    0.058873    0.092358
     0.005135    0.005422    0.008389    0.058873    0.109859    0.101552
    -0.001092   -0.002410   -0.002827    0.092358    0.101552    0.202143

 Vectors for Translations and Rotations


     0.382364    0.000000    0.000000    0.308347   -0.384111   -0.000000
     0.000000    0.382364    0.000000   -0.114128    0.003500    0.329259
     0.000000    0.000000    0.382364    0.004375    0.091294   -0.229712
     0.382364    0.000000    0.000000   -0.283493   -0.410656   -0.000000
     0.000000    0.382364    0.000000   -0.087720    0.002690    0.368538
     0.000000    0.000000    0.382364    0.003363    0.070170    0.185461
     0.382364    0.000000    0.000000    0.300139    0.007488    0.000000
     0.000000    0.382364    0.000000    0.217685   -0.006676   -0.014670
     0.000000    0.000000    0.382364   -0.008346   -0.174133   -0.210747
     0.382364    0.000000    0.000000   -0.300139   -0.007488   -0.000000
     0.000000    0.382364    0.000000    0.217685   -0.006676    0.014670
     0.000000    0.000000    0.382364   -0.008346   -0.174133    0.210747
     0.382364    0.000000    0.000000    0.283493    0.410656    0.000000
     0.000000    0.382364    0.000000   -0.087720    0.002690   -0.368538
     0.000000    0.000000    0.382364    0.003363    0.070170   -0.185461
     0.382364    0.000000    0.000000   -0.308347    0.384111    0.000000
     0.000000    0.382364    0.000000   -0.114128    0.003500   -0.329259
     0.000000    0.000000    0.382364    0.004375    0.091294    0.229712
     0.110810    0.000000    0.000000    0.136642   -0.098672   -0.000000
     0.000000    0.110810    0.000000   -0.144680    0.004437    0.083033
     0.000000    0.000000    0.110810    0.005547    0.115734   -0.099385
     0.110810    0.000000    0.000000    0.146433   -0.186993   -0.000000
     0.000000    0.110810    0.000000    0.018724   -0.000574    0.160389
     0.000000    0.000000    0.110810   -0.000718   -0.014978   -0.109244
     0.110810    0.000000    0.000000   -0.121297   -0.196052   -0.000000
     0.000000    0.110810    0.000000    0.038559   -0.001183    0.175566
     0.000000    0.000000    0.110810   -0.001478   -0.030845    0.078667
     0.110810    0.000000    0.000000   -0.142169   -0.117751   -0.000000
     0.000000    0.110810    0.000000   -0.131904    0.004045    0.107315
     0.000000    0.000000    0.110810    0.005057    0.105514    0.095979
     0.110810    0.000000    0.000000    0.154426    0.000761    0.000000
     0.000000    0.110810    0.000000    0.164652   -0.005050   -0.004831
     0.000000    0.000000    0.110810   -0.006313   -0.131710   -0.108537
     0.110810    0.000000    0.000000   -0.154426   -0.000761   -0.000000
     0.000000    0.110810    0.000000    0.164652   -0.005050    0.004831
     0.000000    0.000000    0.110810   -0.006313   -0.131710    0.108537
     0.110810    0.000000    0.000000    0.142169    0.117751    0.000000
     0.000000    0.110810    0.000000   -0.131904    0.004045   -0.107315
     0.000000    0.000000    0.110810    0.005057    0.105514   -0.095979
     0.110810    0.000000    0.000000    0.121297    0.196052    0.000000
     0.000000    0.110810    0.000000    0.038559   -0.001183   -0.175566
     0.000000    0.000000    0.110810   -0.001478   -0.030845   -0.078667
     0.110810    0.000000    0.000000   -0.136642    0.098672    0.000000
     0.000000    0.110810    0.000000   -0.144680    0.004437   -0.083033
     0.000000    0.000000    0.110810    0.005547    0.115734    0.099385
     0.110810    0.000000    0.000000   -0.146433    0.186993    0.000000
     0.000000    0.110810    0.000000    0.018724   -0.000574   -0.160389
     0.000000    0.000000    0.110810   -0.000718   -0.014978    0.109244

 The Projection Matrix


     0.611179    0.036535    0.033718   -0.216525    0.028081    0.025916
     0.036535    0.732349    0.075815   -0.030917   -0.277567   -0.060927
     0.033718    0.075815    0.792677    0.038731    0.084796   -0.110020
    -0.216525   -0.030917    0.038731    0.604791   -0.023763    0.029769
     0.028081   -0.277567    0.084796   -0.023763    0.710276   -0.068243
     0.025916   -0.060927   -0.110020    0.029769   -0.068243    0.814467
    -0.235872    0.034228   -0.001997   -0.058039    0.026308   -0.001535
    -0.069687   -0.116504   -0.003713    0.058971   -0.121682    0.002457
    -0.064313    0.069048   -0.178679   -0.073875    0.077405   -0.094869
    -0.056531   -0.034228    0.001997   -0.234364   -0.026308    0.001535
    -0.069687   -0.126165    0.003027    0.058971   -0.132495   -0.002984
    -0.064313   -0.069733   -0.081857   -0.073875   -0.077932   -0.173040
    -0.075878    0.030917   -0.038731    0.102805    0.023763   -0.029769
     0.028081   -0.034878   -0.084519   -0.023763   -0.018083    0.068456
     0.025916    0.061203   -0.195225    0.029769    0.068456   -0.116741
     0.096417   -0.036535   -0.033718   -0.075878   -0.028081   -0.025916
     0.036535   -0.050828   -0.075455   -0.030917   -0.034878    0.061203
     0.033718   -0.075455   -0.101788    0.038731   -0.084519   -0.195225
    -0.122404    0.015940    0.008410   -0.044153    0.012252    0.006464
     0.046316   -0.086237    0.019302   -0.039194   -0.085674   -0.015224
     0.042745    0.032951   -0.075790    0.049100    0.036802   -0.032077
    -0.159348    0.017367    0.016431   -0.077647    0.013348    0.012629
    -0.005994   -0.093040    0.036814    0.005072   -0.099835   -0.029769
    -0.005532    0.035940   -0.066094   -0.006354    0.040238   -0.021056
    -0.080274   -0.013157    0.018429   -0.157267   -0.010113    0.014165
    -0.012344   -0.095772    0.040269    0.010446   -0.103687   -0.032607
    -0.011392   -0.025963   -0.021477   -0.013086   -0.029039   -0.054790
    -0.043762   -0.015813    0.011372   -0.131029   -0.012154    0.008741
     0.042226   -0.092772    0.024859   -0.035733   -0.093501   -0.019743
     0.038970   -0.031394   -0.029977    0.044764   -0.035212   -0.067591
    -0.089694    0.017622   -0.000745    0.001721    0.013544   -0.000573
    -0.052709   -0.021970   -0.001369    0.044604   -0.026133    0.000696
    -0.048645    0.035477   -0.055250   -0.055877    0.039801   -0.012977
     0.004955   -0.017622    0.000745   -0.086461   -0.013544    0.000573
    -0.052709   -0.025151    0.000850    0.044604   -0.029693   -0.001095
    -0.048645   -0.035996   -0.005385   -0.055877   -0.040199   -0.053236
    -0.040978    0.015813   -0.011372    0.046289    0.012154   -0.008741
     0.042226   -0.022103   -0.024444   -0.035733   -0.014402    0.020063
     0.038970    0.031810   -0.074072    0.044764    0.035532   -0.031990
    -0.004465    0.013157   -0.018429    0.072527    0.010113   -0.014165
    -0.012344    0.019842   -0.040390    0.010446    0.025719    0.032514
    -0.011392    0.025841   -0.057618   -0.013086    0.028945   -0.025611
     0.037664   -0.015940   -0.008410   -0.040587   -0.012252   -0.006464
     0.046316   -0.031558   -0.018846   -0.039194   -0.024472    0.015575
     0.042745   -0.032495   -0.030130    0.049100   -0.036452   -0.068942
     0.074609   -0.017367   -0.016431   -0.007093   -0.013348   -0.012629
    -0.005994    0.012579   -0.036873    0.005072    0.018384    0.029723
    -0.005532   -0.035999   -0.015905   -0.006354   -0.040283   -0.061577


    -0.235872   -0.069687   -0.064313   -0.056531   -0.069687   -0.064313
     0.034228   -0.116504    0.069048   -0.034228   -0.126165   -0.069733
    -0.001997   -0.003713   -0.178679    0.001997    0.003027   -0.081857
    -0.058039    0.058971   -0.073875   -0.234364    0.058971   -0.073875
     0.026308   -0.121682    0.077405   -0.026308   -0.132495   -0.077932
    -0.001535    0.002457   -0.094869    0.001535   -0.002984   -0.173040
     0.763659   -0.065286    0.003809   -0.056062   -0.065286    0.003809
    -0.065286    0.806152   -0.002438    0.065286   -0.193418    0.003746
     0.003809   -0.002438    0.778992   -0.003809    0.003746   -0.132179
    -0.056062    0.065286   -0.003809    0.763659    0.065286   -0.003809
    -0.065286   -0.193418    0.003746    0.065286    0.806152   -0.002438
     0.003809    0.003746   -0.132179   -0.003809   -0.002438    0.778992
    -0.234364   -0.058971    0.073875   -0.058039   -0.058971    0.073875
     0.026308   -0.132495   -0.077932   -0.026308   -0.121682    0.077405
    -0.001535   -0.002984   -0.173040    0.001535    0.002457   -0.094869
    -0.056531    0.069687    0.064313   -0.235872    0.069687    0.064313
     0.034228   -0.126165   -0.069733   -0.034228   -0.116504    0.069048
    -0.001997    0.003027   -0.081857    0.001997   -0.003713   -0.178679
    -0.082643   -0.030404   -0.016042   -0.002097   -0.030404   -0.016042
     0.043391   -0.009627    0.017064   -0.043391   -0.012064   -0.017934
    -0.002531   -0.001893   -0.043115    0.002531    0.001023   -0.001225
    -0.084920   -0.033125   -0.031340    0.000180   -0.033125   -0.031340
    -0.005615   -0.044096    0.033858    0.005615   -0.048802   -0.033745
     0.000328   -0.001546   -0.068007   -0.000328    0.001659   -0.021961
    -0.004496    0.025096   -0.035152   -0.080244    0.025096   -0.035152
    -0.011564   -0.048196    0.037116    0.011564   -0.053347   -0.036884
     0.000675    0.001270   -0.031174   -0.000675   -0.001038   -0.064332
     0.001183    0.030162   -0.021691   -0.085922    0.030162   -0.021691
     0.039559   -0.012055    0.022220   -0.039559   -0.015204   -0.023013
    -0.002308    0.001012   -0.003727    0.002308   -0.001804   -0.044181
    -0.088725   -0.033611    0.001421    0.003985   -0.033611    0.001421
    -0.049381   -0.078317   -0.000523    0.049381   -0.078175    0.001513
     0.002881   -0.001097   -0.088232   -0.002881    0.002087   -0.042484
     0.003985    0.033611   -0.001421   -0.088725    0.033611   -0.001421
    -0.049381   -0.078175    0.001513    0.049381   -0.078317   -0.000523
     0.002881    0.002087   -0.042484   -0.002881   -0.001097   -0.088232
    -0.085922   -0.030162    0.021691    0.001183   -0.030162    0.021691
     0.039559   -0.015204   -0.023013   -0.039559   -0.012055    0.022220
    -0.002308   -0.001804   -0.044181    0.002308    0.001012   -0.003727
    -0.080244   -0.025096    0.035152   -0.004496   -0.025096    0.035152
    -0.011564   -0.053347   -0.036884    0.011564   -0.048196    0.037116
     0.000675   -0.001038   -0.064332   -0.000675    0.001270   -0.031174
    -0.002097    0.030404    0.016042   -0.082643    0.030404    0.016042
     0.043391   -0.012064   -0.017934   -0.043391   -0.009627    0.017064
    -0.002531    0.001023   -0.001225    0.002531   -0.001893   -0.043115
     0.000180    0.033125    0.031340   -0.084920    0.033125    0.031340
    -0.005615   -0.048802   -0.033745    0.005615   -0.044096    0.033858
     0.000328    0.001659   -0.021961   -0.000328   -0.001546   -0.068007


    -0.075878    0.028081    0.025916    0.096417    0.036535    0.033718
     0.030917   -0.034878    0.061203   -0.036535   -0.050828   -0.075455
    -0.038731   -0.084519   -0.195225   -0.033718   -0.075455   -0.101788
     0.102805   -0.023763    0.029769   -0.075878   -0.030917    0.038731
     0.023763   -0.018083    0.068456   -0.028081   -0.034878   -0.084519
    -0.029769    0.068456   -0.116741   -0.025916    0.061203   -0.195225
    -0.234364    0.026308   -0.001535   -0.056531    0.034228   -0.001997
    -0.058971   -0.132495   -0.002984    0.069687   -0.126165    0.003027
     0.073875   -0.077932   -0.173040    0.064313   -0.069733   -0.081857
    -0.058039   -0.026308    0.001535   -0.235872   -0.034228    0.001997
    -0.058971   -0.121682    0.002457    0.069687   -0.116504   -0.003713
     0.073875    0.077405   -0.094869    0.064313    0.069048   -0.178679
     0.604791    0.023763   -0.029769   -0.216525    0.030917   -0.038731
     0.023763    0.710276   -0.068243   -0.028081   -0.277567    0.084796
    -0.029769   -0.068243    0.814467   -0.025916   -0.060927   -0.110020
    -0.216525   -0.028081   -0.025916    0.611179   -0.036535   -0.033718
     0.030917   -0.277567   -0.060927   -0.036535    0.732349    0.075815
    -0.038731    0.084796   -0.110020   -0.033718    0.075815    0.792677
    -0.040587    0.012252    0.006464    0.037664    0.015940    0.008410
     0.039194   -0.024472    0.015575   -0.046316   -0.031558   -0.018846
    -0.049100   -0.036452   -0.068942   -0.042745   -0.032495   -0.030130
    -0.007093    0.013348    0.012629    0.074609    0.017367    0.016431
    -0.005072    0.018384    0.029723    0.005994    0.012579   -0.036873
     0.006354   -0.040283   -0.061577    0.005532   -0.035999   -0.015905
     0.072527   -0.010113    0.014165   -0.004465   -0.013157    0.018429
    -0.010446    0.025719    0.032514    0.012344    0.019842   -0.040390
     0.013086    0.028945   -0.025611    0.011392    0.025841   -0.057618
     0.046289   -0.012154    0.008741   -0.040978   -0.015813    0.011372
     0.035733   -0.014402    0.020063   -0.042226   -0.022103   -0.024444
    -0.044764    0.035532   -0.031990   -0.038970    0.031810   -0.074072
    -0.086461    0.013544   -0.000573    0.004955    0.017622   -0.000745
    -0.044604   -0.029693   -0.001095    0.052709   -0.025151    0.000850
     0.055877   -0.040199   -0.053236    0.048645   -0.035996   -0.005385
     0.001721   -0.013544    0.000573   -0.089694   -0.017622    0.000745
    -0.044604   -0.026133    0.000696    0.052709   -0.021970   -0.001369
     0.055877    0.039801   -0.012977    0.048645    0.035477   -0.055250
    -0.131029    0.012154   -0.008741   -0.043762    0.015813   -0.011372
     0.035733   -0.093501   -0.019743   -0.042226   -0.092772    0.024859
    -0.044764   -0.035212   -0.067591   -0.038970   -0.031394   -0.029977
    -0.157267    0.010113   -0.014165   -0.080274    0.013157   -0.018429
    -0.010446   -0.103687   -0.032607    0.012344   -0.095772    0.040269
     0.013086   -0.029039   -0.054790    0.011392   -0.025963   -0.021477
    -0.044153   -0.012252   -0.006464   -0.122404   -0.015940   -0.008410
     0.039194   -0.085674   -0.015224   -0.046316   -0.086237    0.019302
    -0.049100    0.036802   -0.032077   -0.042745    0.032951   -0.075790
    -0.077647   -0.013348   -0.012629   -0.159348   -0.017367   -0.016431
    -0.005072   -0.099835   -0.029769    0.005994   -0.093040    0.036814
     0.006354    0.040238   -0.021056    0.005532    0.035940   -0.066094


    -0.122404    0.046316    0.042745   -0.159348   -0.005994   -0.005532
     0.015940   -0.086237    0.032951    0.017367   -0.093040    0.035940
     0.008410    0.019302   -0.075790    0.016431    0.036814   -0.066094
    -0.044153   -0.039194    0.049100   -0.077647    0.005072   -0.006354
     0.012252   -0.085674    0.036802    0.013348   -0.099835    0.040238
     0.006464   -0.015224   -0.032077    0.012629   -0.029769   -0.021056
    -0.082643    0.043391   -0.002531   -0.084920   -0.005615    0.000328
    -0.030404   -0.009627   -0.001893   -0.033125   -0.044096   -0.001546
    -0.016042    0.017064   -0.043115   -0.031340    0.033858   -0.068007
    -0.002097   -0.043391    0.002531    0.000180    0.005615   -0.000328
    -0.030404   -0.012064    0.001023   -0.033125   -0.048802    0.001659
    -0.016042   -0.017934   -0.001225   -0.031340   -0.033745   -0.021961
    -0.040587    0.039194   -0.049100   -0.007093   -0.005072    0.006354
     0.012252   -0.024472   -0.036452    0.013348    0.018384   -0.040283
     0.006464    0.015575   -0.068942    0.012629    0.029723   -0.061577
     0.037664   -0.046316   -0.042745    0.074609    0.005994    0.005532
     0.015940   -0.031558   -0.032495    0.017367    0.012579   -0.035999
     0.008410   -0.018846   -0.030130    0.016431   -0.036873   -0.015905
     0.959314    0.020207    0.010662   -0.050739   -0.002615   -0.001380
     0.020207    0.959875    0.008541    0.022016   -0.022885    0.009033
     0.010662    0.008541    0.964418    0.020829    0.015903   -0.021399
    -0.050739    0.022016    0.020829    0.931312   -0.002849   -0.002696
    -0.002615   -0.022885    0.015903   -0.002849    0.961646    0.017526
    -0.001380    0.009033   -0.021399   -0.002696    0.017526    0.975562
    -0.015049   -0.016679    0.023363   -0.031177    0.002159   -0.003023
    -0.005386   -0.021273    0.017372   -0.005867   -0.041160    0.019189
    -0.002842   -0.006609   -0.000883   -0.005551   -0.012607   -0.004148
    -0.004471   -0.020047    0.014416   -0.013479    0.002594   -0.001866
     0.018423   -0.040291    0.010929    0.020071   -0.027019    0.011689
     0.009720   -0.007706   -0.014980    0.018990   -0.015428   -0.000210
    -0.033305    0.022339   -0.000945   -0.034750   -0.002891    0.000122
    -0.022997    0.011966   -0.000809   -0.025055   -0.014590   -0.000485
    -0.012134    0.008683   -0.007787   -0.023705    0.017451   -0.026113
     0.008747   -0.022339    0.000945    0.010192    0.002891   -0.000122
    -0.022997    0.011164    0.000151   -0.025055   -0.016139    0.000570
    -0.012134   -0.009341    0.013787   -0.023705   -0.017366   -0.002399
    -0.020087    0.020047   -0.014416   -0.011079   -0.002594    0.001866
     0.018423   -0.022470   -0.010402    0.020071    0.007405   -0.011758
     0.009720    0.008233   -0.034057    0.018990    0.015360   -0.021180
    -0.009508    0.016679   -0.023363    0.006620   -0.002159    0.003023
    -0.005386    0.007883   -0.017526   -0.005867    0.015157   -0.019170
    -0.002842    0.006455   -0.016519   -0.005551    0.012627   -0.021336
     0.016128   -0.020207   -0.010662    0.026181    0.002615    0.001380
     0.020207   -0.026336   -0.007963    0.022016    0.003750   -0.009108
     0.010662   -0.007963   -0.015827    0.020829   -0.015978    0.000316
     0.026181   -0.022016   -0.020829    0.044130    0.002849    0.002696
    -0.002615    0.003750   -0.015978   -0.002849    0.013095   -0.017517
    -0.001380   -0.009108    0.000316   -0.002696   -0.017517   -0.000570


    -0.080274   -0.012344   -0.011392   -0.043762    0.042226    0.038970
    -0.013157   -0.095772   -0.025963   -0.015813   -0.092772   -0.031394
     0.018429    0.040269   -0.021477    0.011372    0.024859   -0.029977
    -0.157267    0.010446   -0.013086   -0.131029   -0.035733    0.044764
    -0.010113   -0.103687   -0.029039   -0.012154   -0.093501   -0.035212
     0.014165   -0.032607   -0.054790    0.008741   -0.019743   -0.067591
    -0.004496   -0.011564    0.000675    0.001183    0.039559   -0.002308
     0.025096   -0.048196    0.001270    0.030162   -0.012055    0.001012
    -0.035152    0.037116   -0.031174   -0.021691    0.022220   -0.003727
    -0.080244    0.011564   -0.000675   -0.085922   -0.039559    0.002308
     0.025096   -0.053347   -0.001038    0.030162   -0.015204   -0.001804
    -0.035152   -0.036884   -0.064332   -0.021691   -0.023013   -0.044181
     0.072527   -0.010446    0.013086    0.046289    0.035733   -0.044764
    -0.010113    0.025719    0.028945   -0.012154   -0.014402    0.035532
     0.014165    0.032514   -0.025611    0.008741    0.020063   -0.031990
    -0.004465    0.012344    0.011392   -0.040978   -0.042226   -0.038970
    -0.013157    0.019842    0.025841   -0.015813   -0.022103    0.031810
     0.018429   -0.040390   -0.057618    0.011372   -0.024444   -0.074072
    -0.015049   -0.005386   -0.002842   -0.004471    0.018423    0.009720
    -0.016679   -0.021273   -0.006609   -0.020047   -0.040291   -0.007706
     0.023363    0.017372   -0.000883    0.014416    0.010929   -0.014980
    -0.031177   -0.005867   -0.005551   -0.013479    0.020071    0.018990
     0.002159   -0.041160   -0.012607    0.002594   -0.027019   -0.015428
    -0.003023    0.019189   -0.004148   -0.001866    0.011689   -0.000210
     0.934572    0.004445   -0.006227   -0.052609   -0.015206    0.021300
     0.004445    0.955409   -0.013791    0.005343   -0.026029   -0.016921
    -0.006227   -0.013791    0.980579   -0.003842   -0.008512   -0.016567
    -0.052609    0.005343   -0.003842    0.953644   -0.018276    0.013143
    -0.015206   -0.026029   -0.008512   -0.018276    0.958790   -0.010060
     0.021300   -0.016921   -0.016567    0.013143   -0.010060    0.967350
     0.006602   -0.005954    0.000252    0.009765    0.020366   -0.000861
     0.018982   -0.017786    0.000468    0.022814    0.009978    0.000164
    -0.026588    0.019143   -0.007813   -0.016406    0.011348    0.012068
    -0.031159    0.005954   -0.000252   -0.034323   -0.020366    0.000861
     0.018982   -0.019482   -0.000292    0.022814    0.008941   -0.000763
    -0.026588   -0.018968   -0.024889   -0.016406   -0.011947   -0.008767
     0.028051   -0.005343    0.003842    0.021798    0.018276   -0.013143
    -0.015206    0.011653    0.008372   -0.018276   -0.018177    0.010540
     0.021300    0.016780   -0.001466    0.013143    0.010540   -0.014226
     0.040871   -0.004445    0.006227    0.028051    0.015206   -0.021300
     0.004445    0.017056    0.013832    0.005343    0.011653    0.016780
    -0.006227    0.013832   -0.007044   -0.003842    0.008372   -0.001466
    -0.009508    0.005386    0.002842   -0.020087   -0.018423   -0.009720
    -0.016679    0.007883    0.006455   -0.020047   -0.022470    0.008233
     0.023363   -0.017526   -0.016519    0.014416   -0.010402   -0.034057
     0.006620    0.005867    0.005551   -0.011079   -0.020071   -0.018990
     0.002159    0.015157    0.012627    0.002594    0.007405    0.015360
    -0.003023   -0.019170   -0.021336   -0.001866   -0.011758   -0.021180


    -0.089694   -0.052709   -0.048645    0.004955   -0.052709   -0.048645
     0.017622   -0.021970    0.035477   -0.017622   -0.025151   -0.035996
    -0.000745   -0.001369   -0.055250    0.000745    0.000850   -0.005385
     0.001721    0.044604   -0.055877   -0.086461    0.044604   -0.055877
     0.013544   -0.026133    0.039801   -0.013544   -0.029693   -0.040199
    -0.000573    0.000696   -0.012977    0.000573   -0.001095   -0.053236
    -0.088725   -0.049381    0.002881    0.003985   -0.049381    0.002881
    -0.033611   -0.078317   -0.001097    0.033611   -0.078175    0.002087
     0.001421   -0.000523   -0.088232   -0.001421    0.001513   -0.042484
     0.003985    0.049381   -0.002881   -0.088725    0.049381   -0.002881
    -0.033611   -0.078175    0.002087    0.033611   -0.078317   -0.001097
     0.001421    0.001513   -0.042484   -0.001421   -0.000523   -0.088232
    -0.086461   -0.044604    0.055877    0.001721   -0.044604    0.055877
     0.013544   -0.029693   -0.040199   -0.013544   -0.026133    0.039801
    -0.000573   -0.001095   -0.053236    0.000573    0.000696   -0.012977
     0.004955    0.052709    0.048645   -0.089694    0.052709    0.048645
     0.017622   -0.025151   -0.035996   -0.017622   -0.021970    0.035477
    -0.000745    0.000850   -0.005385    0.000745   -0.001369   -0.055250
    -0.033305   -0.022997   -0.012134    0.008747   -0.022997   -0.012134
     0.022339    0.011966    0.008683   -0.022339    0.011164   -0.009341
    -0.000945   -0.000809   -0.007787    0.000945    0.000151    0.013787
    -0.034750   -0.025055   -0.023705    0.010192   -0.025055   -0.023705
    -0.002891   -0.014590    0.017451    0.002891   -0.016139   -0.017366
     0.000122   -0.000485   -0.026113   -0.000122    0.000570   -0.002399
     0.006602    0.018982   -0.026588   -0.031159    0.018982   -0.026588
    -0.005954   -0.017786    0.019143    0.005954   -0.019482   -0.018968
     0.000252    0.000468   -0.007813   -0.000252   -0.000292   -0.024889
     0.009765    0.022814   -0.016406   -0.034323    0.022814   -0.016406
     0.020366    0.009978    0.011348   -0.020366    0.008941   -0.011947
    -0.000861    0.000164    0.012068    0.000861   -0.000763   -0.008767
     0.963873   -0.025423    0.001075    0.011569   -0.025423    0.001075
    -0.025423    0.960562   -0.000150    0.025423   -0.039391    0.000899
     0.001075   -0.000150    0.958553   -0.001075    0.000899   -0.017886
     0.011569    0.025423   -0.001075    0.963873    0.025423   -0.001075
    -0.025423   -0.039391    0.000899    0.025423    0.960562   -0.000150
     0.001075    0.000899   -0.017886   -0.001075   -0.000150    0.958553
    -0.034323   -0.022814    0.016406    0.009765   -0.022814    0.016406
     0.020366    0.008941   -0.011947   -0.020366    0.009978    0.011348
    -0.000861   -0.000763   -0.008767    0.000861    0.000164    0.012068
    -0.031159   -0.018982    0.026588    0.006602   -0.018982    0.026588
    -0.005954   -0.019482   -0.018968    0.005954   -0.017786    0.019143
     0.000252   -0.000292   -0.024889   -0.000252    0.000468   -0.007813
     0.008747    0.022997    0.012134   -0.033305    0.022997    0.012134
     0.022339    0.011164   -0.009341   -0.022339    0.011966    0.008683
    -0.000945    0.000151    0.013787    0.000945   -0.000809   -0.007787
     0.010192    0.025055    0.023705   -0.034750    0.025055    0.023705
    -0.002891   -0.016139   -0.017366    0.002891   -0.014590    0.017451
     0.000122    0.000570   -0.002399   -0.000122   -0.000485   -0.026113


    -0.040978    0.042226    0.038970   -0.004465   -0.012344   -0.011392
     0.015813   -0.022103    0.031810    0.013157    0.019842    0.025841
    -0.011372   -0.024444   -0.074072   -0.018429   -0.040390   -0.057618
     0.046289   -0.035733    0.044764    0.072527    0.010446   -0.013086
     0.012154   -0.014402    0.035532    0.010113    0.025719    0.028945
    -0.008741    0.020063   -0.031990   -0.014165    0.032514   -0.025611
    -0.085922    0.039559   -0.002308   -0.080244   -0.011564    0.000675
    -0.030162   -0.015204   -0.001804   -0.025096   -0.053347   -0.001038
     0.021691   -0.023013   -0.044181    0.035152   -0.036884   -0.064332
     0.001183   -0.039559    0.002308   -0.004496    0.011564   -0.000675
    -0.030162   -0.012055    0.001012   -0.025096   -0.048196    0.001270
     0.021691    0.022220   -0.003727    0.035152    0.037116   -0.031174
    -0.131029    0.035733   -0.044764   -0.157267   -0.010446    0.013086
     0.012154   -0.093501   -0.035212    0.010113   -0.103687   -0.029039
    -0.008741   -0.019743   -0.067591   -0.014165   -0.032607   -0.054790
    -0.043762   -0.042226   -0.038970   -0.080274    0.012344    0.011392
     0.015813   -0.092772   -0.031394    0.013157   -0.095772   -0.025963
    -0.011372    0.024859   -0.029977   -0.018429    0.040269   -0.021477
    -0.020087    0.018423    0.009720   -0.009508   -0.005386   -0.002842
     0.020047   -0.022470    0.008233    0.016679    0.007883    0.006455
    -0.014416   -0.010402   -0.034057   -0.023363   -0.017526   -0.016519
    -0.011079    0.020071    0.018990    0.006620   -0.005867   -0.005551
    -0.002594    0.007405    0.015360   -0.002159    0.015157    0.012627
     0.001866   -0.011758   -0.021180    0.003023   -0.019170   -0.021336
     0.028051   -0.015206    0.021300    0.040871    0.004445   -0.006227
    -0.005343    0.011653    0.016780   -0.004445    0.017056    0.013832
     0.003842    0.008372   -0.001466    0.006227    0.013832   -0.007044
     0.021798   -0.018276    0.013143    0.028051    0.005343   -0.003842
     0.018276   -0.018177    0.010540    0.015206    0.011653    0.008372
    -0.013143    0.010540   -0.014226   -0.021300    0.016780   -0.001466
    -0.034323    0.020366   -0.000861   -0.031159   -0.005954    0.000252
    -0.022814    0.008941   -0.000763   -0.018982   -0.019482   -0.000292
     0.016406   -0.011947   -0.008767    0.026588   -0.018968   -0.024889
     0.009765   -0.020366    0.000861    0.006602    0.005954   -0.000252
    -0.022814    0.009978    0.000164   -0.018982   -0.017786    0.000468
     0.016406    0.011348    0.012068    0.026588    0.019143   -0.007813
     0.953644    0.018276   -0.013143   -0.052609   -0.005343    0.003842
     0.018276    0.958790   -0.010060    0.015206   -0.026029   -0.008512
    -0.013143   -0.010060    0.967350   -0.021300   -0.016921   -0.016567
    -0.052609    0.015206   -0.021300    0.934572   -0.004445    0.006227
    -0.005343   -0.026029   -0.016921   -0.004445    0.955409   -0.013791
     0.003842   -0.008512   -0.016567    0.006227   -0.013791    0.980579
    -0.004471   -0.018423   -0.009720   -0.015049    0.005386    0.002842
     0.020047   -0.040291   -0.007706    0.016679   -0.021273   -0.006609
    -0.014416    0.010929   -0.014980   -0.023363    0.017372   -0.000883
    -0.013479   -0.020071   -0.018990   -0.031177    0.005867    0.005551
    -0.002594   -0.027019   -0.015428   -0.002159   -0.041160   -0.012607
     0.001866    0.011689   -0.000210    0.003023    0.019189   -0.004148


     0.037664    0.046316    0.042745    0.074609   -0.005994   -0.005532
    -0.015940   -0.031558   -0.032495   -0.017367    0.012579   -0.035999
    -0.008410   -0.018846   -0.030130   -0.016431   -0.036873   -0.015905
    -0.040587   -0.039194    0.049100   -0.007093    0.005072   -0.006354
    -0.012252   -0.024472   -0.036452   -0.013348    0.018384   -0.040283
    -0.006464    0.015575   -0.068942   -0.012629    0.029723   -0.061577
    -0.002097    0.043391   -0.002531    0.000180   -0.005615    0.000328
     0.030404   -0.012064    0.001023    0.033125   -0.048802    0.001659
     0.016042   -0.017934   -0.001225    0.031340   -0.033745   -0.021961
    -0.082643   -0.043391    0.002531   -0.084920    0.005615   -0.000328
     0.030404   -0.009627   -0.001893    0.033125   -0.044096   -0.001546
     0.016042    0.017064   -0.043115    0.031340    0.033858   -0.068007
    -0.044153    0.039194   -0.049100   -0.077647   -0.005072    0.006354
    -0.012252   -0.085674    0.036802   -0.013348   -0.099835    0.040238
    -0.006464   -0.015224   -0.032077   -0.012629   -0.029769   -0.021056
    -0.122404   -0.046316   -0.042745   -0.159348    0.005994    0.005532
    -0.015940   -0.086237    0.032951   -0.017367   -0.093040    0.035940
    -0.008410    0.019302   -0.075790   -0.016431    0.036814   -0.066094
     0.016128    0.020207    0.010662    0.026181   -0.002615   -0.001380
    -0.020207   -0.026336   -0.007963   -0.022016    0.003750   -0.009108
    -0.010662   -0.007963   -0.015827   -0.020829   -0.015978    0.000316
     0.026181    0.022016    0.020829    0.044130   -0.002849   -0.002696
     0.002615    0.003750   -0.015978    0.002849    0.013095   -0.017517
     0.001380   -0.009108    0.000316    0.002696   -0.017517   -0.000570
    -0.009508   -0.016679    0.023363    0.006620    0.002159   -0.003023
     0.005386    0.007883   -0.017526    0.005867    0.015157   -0.019170
     0.002842    0.006455   -0.016519    0.005551    0.012627   -0.021336
    -0.020087   -0.020047    0.014416   -0.011079    0.002594   -0.001866
    -0.018423   -0.022470   -0.010402   -0.020071    0.007405   -0.011758
    -0.009720    0.008233   -0.034057   -0.018990    0.015360   -0.021180
     0.008747    0.022339   -0.000945    0.010192   -0.002891    0.000122
     0.022997    0.011164    0.000151    0.025055   -0.016139    0.000570
     0.012134   -0.009341    0.013787    0.023705   -0.017366   -0.002399
    -0.033305   -0.022339    0.000945   -0.034750    0.002891   -0.000122
     0.022997    0.011966   -0.000809    0.025055   -0.014590   -0.000485
     0.012134    0.008683   -0.007787    0.023705    0.017451   -0.026113
    -0.004471    0.020047   -0.014416   -0.013479   -0.002594    0.001866
    -0.018423   -0.040291    0.010929   -0.020071   -0.027019    0.011689
    -0.009720   -0.007706   -0.014980   -0.018990   -0.015428   -0.000210
    -0.015049    0.016679   -0.023363   -0.031177   -0.002159    0.003023
     0.005386   -0.021273    0.017372    0.005867   -0.041160    0.019189
     0.002842   -0.006609   -0.000883    0.005551   -0.012607   -0.004148
     0.959314   -0.020207   -0.010662   -0.050739    0.002615    0.001380
    -0.020207    0.959875    0.008541   -0.022016   -0.022885    0.009033
    -0.010662    0.008541    0.964418   -0.020829    0.015903   -0.021399
    -0.050739   -0.022016   -0.020829    0.931312    0.002849    0.002696
     0.002615   -0.022885    0.015903    0.002849    0.961646    0.017526
     0.001380    0.009033   -0.021399    0.002696    0.017526    0.975562

 Translations and Rotations Projected Out of Hessian

 Projected Mass-Weighted Hessian Matrix:


     0.043836    0.003946   -0.005611   -0.005133    0.000155    0.001606
     0.003946    0.036954    0.007195   -0.000713   -0.014195    0.000642
    -0.005611    0.007195    0.038887    0.001586    0.001184   -0.004073
    -0.005133   -0.000713    0.001586    0.044141   -0.005597   -0.004855
     0.000155   -0.014195    0.001184   -0.005597    0.035380   -0.006115
     0.001606    0.000642   -0.004073   -0.004855   -0.006115    0.040651
    -0.009077    0.000495   -0.003983   -0.000795    0.001216   -0.001786
    -0.000106   -0.002985   -0.000917    0.001236   -0.003180    0.002233
    -0.003657   -0.000395   -0.011522   -0.002414    0.002032   -0.001979
    -0.000877   -0.001643   -0.001739   -0.008792   -0.000903   -0.003941
    -0.001640   -0.003738   -0.001967   -0.000159   -0.002993   -0.000345
    -0.002197   -0.001635   -0.001375   -0.003717   -0.000871   -0.012204
     0.000915   -0.000061   -0.001022   -0.000087   -0.000124    0.000121
     0.000118    0.000085   -0.000322    0.000124   -0.000080   -0.000038
     0.000808    0.000121   -0.001942   -0.000121   -0.000038   -0.000026
    -0.000022    0.000139    0.000097    0.000915   -0.000118   -0.000808
    -0.000139   -0.000004    0.000050    0.000061    0.000085    0.000121
    -0.000097    0.000050    0.000022    0.001022   -0.000322   -0.001942
    -0.073521   -0.024638    0.010696    0.001004    0.000898   -0.000248
    -0.024294   -0.022028    0.004656   -0.006916   -0.001761    0.001913
     0.010719    0.004493   -0.013612    0.001411    0.000147   -0.001059
    -0.026647    0.016310    0.025216   -0.000492   -0.000661    0.000054
     0.016235   -0.028914   -0.027564    0.003692   -0.003813   -0.005663
     0.025116   -0.027610   -0.054964   -0.001283    0.001372    0.001711
    -0.000879    0.000245    0.000565   -0.033935   -0.010951    0.032041
    -0.004702   -0.002717    0.006274   -0.010911   -0.017079    0.016713
    -0.000646   -0.000485    0.000669    0.031934    0.016744   -0.059456
     0.001502   -0.001193   -0.000112   -0.068469    0.030718    0.001104
     0.006589   -0.002356   -0.001069    0.030337   -0.029195   -0.000997
     0.000148    0.000161   -0.000739    0.001319   -0.000892   -0.011780
    -0.002596    0.001996    0.001046   -0.000188    0.000057   -0.000215
    -0.001746    0.000849    0.000430    0.000319   -0.000449    0.000133
    -0.004931    0.003284    0.000216   -0.000364    0.000444   -0.000751
    -0.000035   -0.000093   -0.000277   -0.002213   -0.001726    0.001206
    -0.000421   -0.000589   -0.000242    0.001040    0.000299   -0.000522
    -0.000381   -0.000569   -0.000773   -0.005128   -0.003502    0.000548
     0.000426    0.000154   -0.000618    0.000085    0.000053   -0.000098
    -0.000037    0.000177    0.000210   -0.000115    0.000025    0.000099
     0.000539    0.000125    0.000651    0.000032    0.000154    0.000089
    -0.000484   -0.000179    0.000456    0.000042    0.000103   -0.000099
     0.000109   -0.000023   -0.000716   -0.000015   -0.000027   -0.000062
     0.001087   -0.000059   -0.000680   -0.000101   -0.000064    0.000116
    -0.000041   -0.000014   -0.000069    0.000373   -0.000189   -0.000674
     0.000191    0.000010   -0.000090    0.000016    0.000185   -0.000109
    -0.000002   -0.000068    0.000079    0.000403   -0.000112    0.000803
    -0.000008   -0.000048   -0.000079   -0.000589    0.000229    0.000271
     0.000024   -0.000025    0.000086   -0.000023   -0.000006    0.000581
    -0.000083    0.000101    0.000147    0.001106   -0.000038   -0.000705


    -0.009077   -0.000106   -0.003657   -0.000877   -0.001640   -0.002197
[...]
 H          0.073  0.313  0.085    0.110  0.133  0.106   -0.118 -0.080 -0.209
 H         -0.118 -0.271  0.078    0.006  0.054  0.564   -0.012 -0.032 -0.154
 H         -0.118  0.271 -0.078    0.006 -0.054 -0.564    0.012 -0.032 -0.154
 H          0.073 -0.313 -0.085    0.110 -0.133 -0.106    0.118 -0.080 -0.209
 H          0.020 -0.267  0.003    0.112 -0.066 -0.148   -0.182  0.309  0.213
 H          0.033  0.230 -0.142   -0.087 -0.147  0.093    0.126  0.074 -0.204
 H         -0.052  0.285 -0.014   -0.103 -0.063  0.132   -0.153 -0.283  0.243
 TransDip   0.001  0.000  0.000    0.004 -0.000 -0.000    0.000  0.001  0.003

 Mode:                16                     17                     18
 Frequency:      1047.83                1074.33                1105.52
 Force Cnst:      1.1116                 1.2071                 1.4573
 Red. Mass:       1.7184                 1.7751                 2.0237
 IR Active:          YES                    YES                    YES
 IR Intens:        0.271                  0.027                  0.749
 Raman Active:       YES                    YES                    YES
               X      Y      Z        X      Y      Z        X      Y      Z
 C         -0.054 -0.021 -0.067   -0.095  0.007  0.053    0.007 -0.039  0.042
 C         -0.063  0.015 -0.063    0.078 -0.011 -0.070    0.035  0.045  0.028
 C         -0.006  0.013  0.127    0.100 -0.039  0.020   -0.047 -0.191  0.018
 C          0.006  0.013  0.127   -0.100 -0.039  0.020   -0.047  0.191 -0.018
 C          0.063  0.015 -0.063   -0.078 -0.011 -0.070    0.035 -0.045 -0.028
 C          0.054 -0.021 -0.067    0.095  0.007  0.053    0.007  0.039 -0.042
 H         -0.081  0.018 -0.103   -0.132 -0.026 -0.304   -0.052  0.034 -0.112
 H         -0.105  0.052 -0.148    0.156  0.139  0.107   -0.095  0.142 -0.135
 H         -0.071 -0.088 -0.108   -0.136  0.138 -0.155   -0.098 -0.068 -0.100
 H         -0.113 -0.066 -0.184    0.089  0.018  0.287   -0.067 -0.127 -0.090
 H         -0.022 -0.005  0.582    0.292  0.247  0.030    0.375  0.443  0.006
 H          0.022 -0.005  0.582   -0.292  0.247  0.030    0.375 -0.443 -0.006
 H          0.113 -0.066 -0.184   -0.089  0.018  0.287   -0.067  0.127  0.090
 H          0.071 -0.088 -0.108    0.136  0.138 -0.155   -0.098  0.068  0.100
 H          0.081  0.018 -0.103    0.132 -0.026 -0.304   -0.052 -0.034  0.112
 H          0.105  0.052 -0.148   -0.156  0.139  0.107   -0.095 -0.142  0.135
 TransDip  -0.000 -0.002  0.017   -0.000  0.005 -0.000    0.028 -0.000 -0.000

 Mode:                19                     20                     21
 Frequency:      1153.80                1160.07                1175.53
 Force Cnst:      1.0495                 1.1356                 1.0129
 Red. Mass:       1.3380                 1.4323                 1.2441
 IR Active:          YES                    YES                    YES
 IR Intens:        0.006                  0.138                  0.000
 Raman Active:       YES                    YES                    YES
               X      Y      Z        X      Y      Z        X      Y      Z
 C          0.042  0.019 -0.023   -0.067 -0.025  0.016    0.055 -0.021 -0.021
 C         -0.053  0.008  0.007   -0.036  0.041  0.014   -0.071 -0.005  0.031
 C         -0.076 -0.059  0.014    0.103  0.013  0.001    0.015 -0.016  0.018
 C          0.076 -0.059  0.014    0.103 -0.013 -0.001    0.015  0.016 -0.018
 C          0.053  0.008  0.007   -0.036 -0.041 -0.014   -0.071  0.005 -0.031
 C         -0.042  0.019 -0.023   -0.067  0.025 -0.016    0.055  0.021  0.021
 H         -0.031  0.197 -0.036   -0.159  0.084 -0.289   -0.136  0.366 -0.211
 H          0.054 -0.235  0.152    0.137 -0.089  0.168    0.031 -0.257  0.119
 H         -0.049 -0.231 -0.079    0.144  0.172  0.175   -0.019 -0.260 -0.027
 H          0.066  0.226  0.005   -0.201 -0.257 -0.331    0.103  0.305  0.032
 H          0.242  0.431 -0.019    0.096 -0.006  0.057    0.044  0.023 -0.190
 H         -0.242  0.431 -0.019    0.096  0.006 -0.057    0.044 -0.023  0.190
 H         -0.066  0.226  0.005   -0.201  0.257  0.331    0.103 -0.305 -0.032
 H          0.049 -0.231 -0.079    0.144 -0.172 -0.175   -0.019  0.260  0.027
 H          0.031  0.197 -0.036   -0.159 -0.084  0.289   -0.136 -0.366  0.211
 H         -0.054 -0.235  0.152    0.137  0.089 -0.168    0.031  0.257 -0.119
 TransDip   0.000  0.001  0.002   -0.012  0.000  0.000    0.000 -0.000 -0.000

 Mode:                22                     23                     24
 Frequency:      1193.17                1203.83                1208.03
 Force Cnst:      1.2741                 1.2055                 1.1647
 Red. Mass:       1.5189                 1.4119                 1.3546
 IR Active:          YES                    YES                    YES
 IR Intens:        0.331                  0.188                  0.047
 Raman Active:       YES                    YES                    YES
               X      Y      Z        X      Y      Z        X      Y      Z
 C          0.005  0.031 -0.044    0.059 -0.078  0.060   -0.032  0.052 -0.072
 C         -0.059 -0.089 -0.048   -0.016  0.022  0.024    0.035  0.046  0.057
 C          0.048  0.043  0.048    0.037  0.030 -0.040   -0.006 -0.010 -0.014
 C         -0.048  0.043  0.048   -0.037  0.030 -0.040   -0.006  0.010  0.014
 C          0.059 -0.089 -0.048    0.016  0.022  0.024    0.035 -0.046 -0.057
 C         -0.005  0.031 -0.044   -0.059 -0.078  0.060   -0.032 -0.052  0.072
 H          0.008  0.057  0.022   -0.216  0.426 -0.360    0.079 -0.126  0.162
 H          0.055 -0.174  0.118   -0.081  0.087 -0.128    0.155 -0.309  0.269
 H          0.076  0.096  0.109   -0.061 -0.175 -0.077   -0.166 -0.309 -0.201
 H          0.236  0.435  0.283    0.041  0.132  0.011   -0.052 -0.109 -0.091
 H         -0.135 -0.236 -0.004   -0.089 -0.160  0.030    0.017  0.028  0.238
 H          0.135 -0.236 -0.004    0.089 -0.160  0.030    0.017 -0.028 -0.238
 H         -0.236  0.435  0.283   -0.041  0.132  0.011   -0.052  0.109  0.091
 H         -0.076  0.096  0.109    0.061 -0.175 -0.077   -0.166  0.309  0.201
 H         -0.008  0.057  0.022    0.216  0.426 -0.360    0.079  0.126 -0.162
 H         -0.055 -0.174  0.118    0.081  0.087 -0.128    0.155  0.309 -0.269
 TransDip  -0.000 -0.003  0.018    0.000 -0.004 -0.013    0.007  0.000  0.000

 Mode:                25                     26                     27
 Frequency:      1234.70                1247.35                1257.75
 Force Cnst:      1.4623                 1.3843                 1.6899
 Red. Mass:       1.6280                 1.5101                 1.8131
 IR Active:          YES                    YES                    YES
 IR Intens:        3.324                  0.466                  0.123
 Raman Active:       YES                    YES                    YES
               X      Y      Z        X      Y      Z        X      Y      Z
 C          0.035 -0.073  0.021    0.031 -0.034  0.061    0.014 -0.015  0.073
 C          0.043  0.088  0.047   -0.038 -0.048 -0.068   -0.001  0.006 -0.059
 C         -0.022  0.091  0.024   -0.092 -0.004  0.014   -0.003  0.009 -0.165
 C         -0.022 -0.091 -0.024    0.092 -0.004  0.014   -0.003 -0.009  0.165
 C          0.043 -0.088 -0.047    0.038 -0.048 -0.068   -0.001 -0.006  0.059
 C          0.035  0.073 -0.021   -0.031 -0.034  0.061    0.014  0.015 -0.073
 H         -0.081  0.168 -0.086   -0.005  0.026 -0.028   -0.107  0.161 -0.228
 H         -0.121  0.202 -0.245   -0.164  0.310 -0.269    0.016  0.057  0.028
 H         -0.138 -0.303 -0.211    0.177  0.367  0.217   -0.056 -0.064 -0.120
 H         -0.136 -0.235 -0.147    0.033  0.086  0.036    0.054  0.102  0.139
 H         -0.188 -0.151 -0.068    0.053  0.228 -0.047   -0.021 -0.005  0.561
 H         -0.188  0.151  0.068   -0.053  0.228 -0.047   -0.021  0.005 -0.561
 H         -0.136  0.235  0.147   -0.033  0.086  0.036    0.054 -0.102 -0.139
 H         -0.138  0.303  0.211   -0.177  0.367  0.217   -0.056  0.064  0.120
 H         -0.081 -0.168  0.086    0.005  0.026 -0.028   -0.107 -0.161  0.228
 H         -0.121 -0.202  0.245    0.164  0.310 -0.269    0.016 -0.057 -0.028
 TransDip  -0.058  0.000  0.000   -0.000  0.022  0.001   -0.011 -0.000  0.000

 Mode:                28                     29                     30
 Frequency:      1269.38                1391.32                1403.28
 Force Cnst:      1.4542                 1.2287                 1.2647
 Red. Mass:       1.5317                 1.0773                 1.0901
 IR Active:          YES                    YES                    YES
 IR Intens:        1.594                  0.251                  1.520
 Raman Active:       YES                    YES                    YES
               X      Y      Z        X      Y      Z        X      Y      Z
 C         -0.012  0.032  0.028   -0.016 -0.036 -0.018   -0.023 -0.044 -0.031
 C         -0.017 -0.035  0.028    0.008 -0.027  0.018    0.005 -0.010  0.008
 C         -0.006 -0.008 -0.139   -0.001 -0.003 -0.010    0.001 -0.005  0.008
 C          0.006 -0.008 -0.139   -0.001  0.003  0.010   -0.001 -0.005  0.008
 C          0.017 -0.035  0.028    0.008  0.027 -0.018   -0.005 -0.010  0.008
 C          0.012  0.032  0.028   -0.016  0.036  0.018    0.023 -0.044 -0.031
 H         -0.022  0.067  0.006   -0.072  0.253  0.288   -0.084  0.291  0.366
 H          0.158 -0.029  0.172    0.318  0.219  0.023    0.384  0.265  0.019
 H          0.170  0.092  0.203   -0.232  0.193 -0.073   -0.124  0.093 -0.046
 H         -0.013 -0.043  0.038    0.093  0.150 -0.258    0.043  0.066 -0.138
 H          0.018  0.038  0.576    0.003  0.003  0.023    0.001 -0.005 -0.030
 H         -0.018  0.038  0.576    0.003 -0.003 -0.023   -0.001 -0.005 -0.030
 H          0.013 -0.043  0.038    0.093 -0.150  0.258   -0.043  0.066 -0.138
 H         -0.170  0.092  0.203   -0.232 -0.193  0.073    0.124  0.093 -0.046
 H          0.022  0.067  0.006   -0.072 -0.253 -0.288    0.084  0.291  0.366
 H         -0.158 -0.029  0.172    0.318 -0.219 -0.023   -0.384  0.265  0.019
 TransDip  -0.000 -0.004 -0.040    0.016 -0.000  0.000    0.000  0.036  0.017

 Mode:                31                     32                     33
 Frequency:      1413.63                1427.45                2977.09
 Force Cnst:      1.3209                 1.3443                 5.5263
 Red. Mass:       1.1219                 1.1198                 1.0583
 IR Active:          YES                    YES                    YES
 IR Intens:        2.403                  3.242                 86.458
 Raman Active:       YES                    YES                    YES
               X      Y      Z        X      Y      Z        X      Y      Z
 C         -0.008 -0.021 -0.015    0.021  0.028  0.027   -0.020 -0.022 -0.012
 C         -0.019  0.043 -0.045    0.019 -0.030  0.039    0.017 -0.024  0.021
 C         -0.002  0.004  0.015   -0.004  0.017 -0.002   -0.002  0.002 -0.000
 C          0.002  0.004  0.015   -0.004 -0.017  0.002    0.002  0.002 -0.000
 C          0.019  0.043 -0.045    0.019  0.030 -0.039   -0.017 -0.024  0.021
 C          0.008 -0.021 -0.015    0.021 -0.028 -0.027    0.020 -0.022 -0.012
 H         -0.029  0.101  0.111    0.058 -0.182 -0.242    0.356  0.139 -0.061
 H          0.116  0.089 -0.011   -0.265 -0.159 -0.026   -0.120  0.123  0.197
 H          0.354 -0.297  0.097   -0.305  0.223 -0.098    0.171  0.082 -0.245
 H         -0.140 -0.207  0.402    0.115  0.163 -0.332   -0.376  0.202  0.006
 H         -0.004  0.001 -0.058   -0.033 -0.016  0.006    0.029 -0.025  0.001
 H          0.004  0.001 -0.058   -0.033  0.016 -0.006   -0.029 -0.025  0.001
 H          0.140 -0.207  0.402    0.115 -0.163  0.332    0.376  0.202  0.006
 H         -0.354 -0.297  0.097   -0.305 -0.223  0.098   -0.171  0.082 -0.245
 H          0.029  0.101  0.111    0.058  0.182  0.242   -0.356  0.139 -0.061
 H         -0.116  0.089 -0.011   -0.265  0.159  0.026    0.120  0.123  0.197
 TransDip   0.000 -0.014  0.048   -0.058 -0.000  0.000   -0.000 -0.292  0.058

 Mode:                34                     35                     36
 Frequency:      2978.03                2984.47                2985.36
 Force Cnst:      5.5333                 5.5803                 5.5780
 Red. Mass:       1.0589                 1.0633                 1.0623
 IR Active:          YES                    YES                    YES
 IR Intens:        0.007                 53.144                 47.307
 Raman Active:       YES                    YES                    YES
               X      Y      Z        X      Y      Z        X      Y      Z
 C          0.021  0.022  0.011    0.024  0.027  0.012   -0.023 -0.026 -0.013
 C         -0.018  0.024 -0.020    0.015 -0.023  0.019   -0.013  0.022 -0.020
 C         -0.001  0.001 -0.001   -0.001  0.000 -0.002   -0.008  0.004 -0.000
 C         -0.001 -0.001  0.001    0.001  0.000 -0.002   -0.008 -0.004  0.000
 C         -0.018 -0.024  0.020   -0.015 -0.023  0.019   -0.013 -0.022  0.020
 C          0.021 -0.022 -0.011   -0.024  0.027  0.012   -0.023  0.026  0.013
 H         -0.361 -0.143  0.065   -0.412 -0.163  0.075    0.399  0.157 -0.069
 H          0.117 -0.117 -0.189    0.130 -0.129 -0.207   -0.134  0.136  0.218
 H         -0.166 -0.078  0.236    0.158  0.074 -0.222   -0.162 -0.078  0.234
 H          0.384 -0.207 -0.011   -0.327  0.177  0.012    0.311 -0.168 -0.007
 H          0.013 -0.009 -0.001    0.009 -0.005  0.001    0.094 -0.063  0.001
 H          0.013  0.009  0.001   -0.009 -0.005  0.001    0.094  0.063 -0.001
 H          0.384  0.207  0.011    0.327  0.177  0.012    0.311  0.168  0.007
 H         -0.166  0.078 -0.236   -0.158  0.074 -0.222   -0.162  0.078 -0.234
 H         -0.361  0.143 -0.065    0.412 -0.163  0.075    0.399 -0.157  0.069
 H          0.117  0.117  0.189   -0.130 -0.129 -0.207   -0.134 -0.136 -0.218
 TransDip   0.003  0.000 -0.000   -0.000  0.028  0.232   -0.220 -0.000 -0.000

 Mode:                37                     38                     39
 Frequency:      3015.49                3028.60                3030.69
 Force Cnst:      5.8497                 5.9131                 5.9879
 Red. Mass:       1.0919                 1.0942                 1.1065
 IR Active:          YES                    YES                    YES
 IR Intens:       30.151                 12.476                  1.005
 Raman Active:       YES                    YES                    YES
               X      Y      Z        X      Y      Z        X      Y      Z
 C         -0.017  0.004  0.013    0.019  0.001 -0.010   -0.031  0.010  0.028
 C          0.019 -0.003 -0.010    0.013 -0.005 -0.002    0.042 -0.003 -0.029
 C          0.045 -0.029  0.000   -0.047  0.033 -0.001   -0.003  0.002 -0.000
 C         -0.045 -0.029  0.000   -0.047 -0.033  0.001   -0.003 -0.002  0.000
 C         -0.019 -0.003 -0.010    0.013  0.005  0.002    0.042  0.003  0.029
 C          0.017  0.004  0.013    0.019 -0.001  0.010   -0.031 -0.010 -0.028
 H          0.119  0.049 -0.018   -0.161 -0.067  0.024    0.201  0.086 -0.029
 H          0.080 -0.091 -0.139   -0.058  0.066  0.099    0.173 -0.198 -0.304
 H         -0.084 -0.046  0.127   -0.026 -0.015  0.038   -0.225 -0.123  0.343
 H         -0.141  0.078 -0.001   -0.122  0.068 -0.001   -0.275  0.156 -0.002
 H         -0.525  0.343 -0.004    0.545 -0.359  0.005    0.035 -0.023  0.001
 H          0.525  0.343 -0.004    0.545  0.359 -0.005    0.035  0.023 -0.001
 H          0.141  0.078 -0.001   -0.122 -0.068  0.001   -0.275 -0.156  0.002
 H          0.084 -0.046  0.127   -0.026  0.015 -0.038   -0.225  0.123 -0.343
 H         -0.119  0.049 -0.018   -0.161  0.067 -0.024    0.201 -0.086  0.029
 H         -0.080 -0.091 -0.139   -0.058 -0.066 -0.099    0.173  0.198  0.304
 TransDip  -0.000 -0.175  0.018   -0.113  0.000  0.000    0.032  0.000 -0.000

 Mode:                40                     41                     42
 Frequency:      3036.00                3048.94                3055.50
 Force Cnst:      5.9837                 6.0584                 6.0738
 Red. Mass:       1.1018                 1.1061                 1.1042
 IR Active:          YES                    YES                    YES
 IR Intens:       13.170                 42.057                 76.831
 Raman Active:       YES                    YES                    YES
               X      Y      Z        X      Y      Z        X      Y      Z
 C         -0.027  0.008  0.025    0.038 -0.009 -0.032   -0.034  0.009  0.030
 C          0.037 -0.002 -0.027    0.036 -0.002 -0.025   -0.033  0.001  0.025
 C         -0.023  0.014 -0.000    0.002 -0.001  0.000   -0.018  0.011 -0.000
 C          0.023  0.014 -0.000   -0.002 -0.001  0.000   -0.018 -0.011  0.000
 C         -0.037 -0.002 -0.027   -0.036 -0.002 -0.025   -0.033 -0.001 -0.025
 C          0.027  0.008  0.025   -0.038 -0.009 -0.032   -0.034 -0.009 -0.030
 H          0.182  0.078 -0.024   -0.262 -0.112  0.039    0.240  0.103 -0.033
 H          0.148 -0.167 -0.261   -0.193  0.222  0.341    0.179 -0.204 -0.316
 H         -0.208 -0.112  0.318   -0.197 -0.108  0.301    0.194  0.106 -0.297
 H         -0.243  0.138 -0.005   -0.226  0.129 -0.001    0.211 -0.120  0.005
 H          0.268 -0.176  0.002   -0.025  0.016 -0.001    0.200 -0.131  0.002
 H         -0.268 -0.176  0.002    0.025  0.016 -0.001    0.200  0.131 -0.002
 H          0.243  0.138 -0.005    0.226  0.129 -0.001    0.211  0.120 -0.005
 H          0.208 -0.112  0.318    0.197 -0.108  0.301    0.194 -0.106  0.297
 H         -0.182  0.078 -0.024    0.262 -0.112  0.039    0.240 -0.103  0.033
 H         -0.148 -0.167 -0.261    0.193  0.222  0.341    0.179  0.204  0.316
 TransDip   0.000  0.116 -0.005    0.000 -0.051 -0.201   -0.281 -0.000 -0.000

 STANDARD THERMODYNAMIC QUANTITIES AT   298.15 K  AND     1.00 ATM

   This Molecule has  0 Imaginary Frequencies
   Zero point vibrational energy:       88.576 kcal/mol

   Atom    1 Element C  Has Mass   12.00000
   Atom    2 Element C  Has Mass   12.00000
   Atom    3 Element C  Has Mass   12.00000
   Atom    4 Element C  Has Mass   12.00000
   Atom    5 Element C  Has Mass   12.00000
   Atom    6 Element C  Has Mass   12.00000
   Atom    7 Element H  Has Mass    1.00783
   Atom    8 Element H  Has Mass    1.00783
   Atom    9 Element H  Has Mass    1.00783
   Atom   10 Element H  Has Mass    1.00783
   Atom   11 Element H  Has Mass    1.00783
   Atom   12 Element H  Has Mass    1.00783
   Atom   13 Element H  Has Mass    1.00783
   Atom   14 Element H  Has Mass    1.00783
   Atom   15 Element H  Has Mass    1.00783
   Atom   16 Element H  Has Mass    1.00783
   Molecular Mass:    82.078300 amu
   Principal axes and moments of inertia in amu*Bohr^2:
                             1           2           3
    Eigenvalues --      296.29263   463.03495   598.63717
          X              -0.00000    -0.00000     1.00000
          Y               0.03831     0.99927     0.00000
          Z               0.99927    -0.03831     0.00000
   Rotational Symmetry Number is   1
   The Molecule is an Asymmetric Top
   Translational Enthalpy:        0.889 kcal/mol
   Rotational Enthalpy:           0.889 kcal/mol
   Vibrational Enthalpy:         90.277 kcal/mol
   gas constant (RT):             0.592 kcal/mol
   Translational Entropy:        39.129  cal/mol.K
   Rotational Entropy:           25.910  cal/mol.K
   Vibrational Entropy:           9.782  cal/mol.K

   Total Enthalpy:               92.647 kcal/mol
   Total Entropy:                74.821  cal/mol.K
 Total job time:  51.16s(wall), 203.49s(cpu) 
 Wed Aug  2 11:44:35 2023

        *************************************************************
        *                                                           *
        *  Thank you very much for using Q-Chem.  Have a nice day.  *
        *                                                           *
        *************************************************************


