16
Properties=species:S:1:pos:R:3:forces:R:3 energy=-6375.491612683846 pbc="F F F"
C        0.30012915       0.85857020       1.23063701       0.00014398       0.00381038      -0.00186662
C        0.23063909      -0.69318017       1.37744824      -0.00123927      -0.00470512      -0.00189233
C       -0.57300887       0.78768923      -0.05483162       0.00092046      -0.00641233       0.00004628
C       -0.57300887      -0.78768923       0.05483162       0.00092046       0.00641233      -0.00004628
C        0.23063909       0.69318017      -1.37744824      -0.00123927       0.00470512       0.00189233
C        0.30012915      -0.85857020      -1.23063701       0.00014398      -0.00381038       0.00186662
H        1.31351081       1.28177142       1.07087979       0.00067877      -0.00205688       0.00101301
H       -0.17019938       1.40892010       2.06854022      -0.00092046      -0.00191804       0.00116728
H       -0.35030762      -1.01457124       2.26427999      -0.00023654      -0.00349670      -0.00140382
H        1.19749808      -1.23783800       1.38404119       0.00082275       0.00003600      -0.00029311
H       -1.49523125       1.39980258      -0.06230096      -0.00017484       0.00028282       0.00213916
H       -1.49523125      -1.39980258       0.06230096      -0.00017484      -0.00028282      -0.00213916
H        1.19749808       1.23783800      -1.38404119       0.00082275      -0.00003600       0.00029311
H       -0.35030762       1.01457124      -2.26427999      -0.00023654       0.00349670       0.00140382
H        1.31351081      -1.28177142      -1.07087979       0.00067877       0.00205688      -0.00101301
H       -0.17019938      -1.40892010      -2.06854022      -0.00092046       0.00191804      -0.00116728
