                  Welcome to Q-Chem
     A Quantum Leap Into The Future Of Chemistry


 Q-Chem 6.0 (devel), Q-Chem, Inc., Pleasanton, CA (2022)

 E. Epifanovsky,  A. T. B. Gilbert,  Xintian Feng,  Joonho Lee,  Yuezhi Mao,  
 N. Mardirossian,  P. Pokhilko,  A. White,  M. Wormit,  M. P. Coons,  
 A. L. Dempwolff,  Zhengting Gan,  D. Hait,  P. R. Horn,  L. D. Jacobson,  
 I. Kaliman,  J. Kussmann,  A. W. Lange,  Ka Un Lao,  D. S. Levine,  Jie Liu,  
 S. C. McKenzie,  A. F. Morrison,  K. Nanda,  F. Plasser,  D. R. Rehn,  
 M. L. Vidal,  Zhi-Qiang You,  Ying Zhu,  B. Alam,  B. Albrecht,  
 A. Aldossary,  E. Alguire,  J. H. Andersen,  V. Athavale,  D. Barton,  
 K. Begam,  A. Behn,  N. Bellonzi,  Y. A. Bernard,  E. J. Berquist,  
 H. Burton,  A. Carreras,  K. Carter-Fenk,  Romit Chakraborty,  
 Chandrima Chakravarty,  Junhan Chen,  A. D. Chien,  K. D. Closser,  
 V. Cofer-Shabica,  L. Cunha,  S. Dasgupta,  Jia Deng,  M. de Wergifosse,  
 M. Diedenhofen,  Hainam Do,  S. Ehlert,  Po-Tung Fang,  S. Fatehi,  
 Qingguo Feng,  T. Friedhoff,  B. Ganoe,  J. Gayvert,  Qinghui Ge,  
 G. Gidofalvi,  M. Goldey,  J. Gomes,  C. Gonzalez-Espinoza,  S. Gulania,  
 A. Gunina,  J. A. Gyamfi,  M. W. D. Hanson-Heine,  P. H. P. Harbach,  
 A. W. Hauser,  M. F. Herbst,  M. Hernandez Vera,  M. Hodecker,  
 Z. C. Holden,  S. Houck,  Xunkun Huang,  Kerwin Hui,  B. C. Huynh,  
 K. Ikeda,  M. Ivanov,  Hyunjun Ji,  Zuxin Jin,  Hanjie Jiang,  B. Kaduk,  
 S. Kaehler,  R. Kang,  K. Khistyaev,  Jaehoon Kim,  Yongbin Kim,  
 P. Klunzinger,  Z. Koczor-Benda,  Joong Hoon Koh,  D. Kosenkov,  
 Saikiran Kotaru,  L. Koulias,  T. Kowalczyk,  C. M. Krauter,  K. Kue,  
 A. Kunitsa,  T. Kus,  A. Landau,  K. V. Lawler,  D. Lefrancois,  S. Lehtola,  
 Rain Li,  Shaozhi Li,  Yi-Pei Li,  Jiashu Liang,  M. Liebenthal,  
 Hung-Hsuan Lin,  You-Sheng Lin,  Fenglai Liu,  Kuan-Yu Liu,  
 M. Loipersberger,  A. Luenser,  C. Malbon,  A. Manjanath,  P. Manohar,  
 E. Mansoor,  S. F. Manzer,  Shan-Ping Mao,  A. V. Marenich,  T. Markovich,  
 S. Mason,  F. Matz,  S. A. Maurer,  P. F. McLaughlin,  M. F. S. J. Menger,  
 J.-M. Mewes,  S. A. Mewes,  P. Morgante,  Mohammad Mostafanejad,  
 J. W. Mullinax,  K. J. Oosterbaan,  G. Paran,  V. Parravicini,  
 Alexander C. Paul,  Suranjan K. Paul,  F. Pavosevic,  Zheng Pei,  S. Prager,  
 E. I. Proynov,  E. Ramos,  B. Rana,  A. E. Rask,  A. Rettig,  R. M. Richard,  
 F. Rob,  E. Rossomme,  T. Scheele,  M. Scheurer,  M. Schneider,  
 P. E. Schneider,  N. Sergueev,  S. M. Sharada,  Hengyuan Shen,  
 W. Skomorowski,  D. W. Small,  C. J. Stein,  Yingli Su,  Yu-Chuan Su,  
 E. J. Sundstrom,  Zhen Tao,  J. Thirman,  Hung-Yi Tsai,  T. Tsuchimochi,  
 N. M. Tubman,  C. Utku,  S. P. Veccham,  O. Vydrov,  J. Wenzel,  
 Jonathan Wong,  J. Witte,  A. Yamada,  Chou-Hsun Yang,  Kun Yao,  
 S. Yeganeh,  S. R. Yost,  A. Zech,  F. Zeller,  Igor Ying Zhang,  
 Xing Zhang,  Yu Zhang,  D. Zuev,  A. Aspuru-Guzik,  A. T. Bell,  
 N. A. Besley,  K. B. Bravaya,  B. R. Brooks,  D. Casanova,  Jeng-Da Chai,  
 Hsing-Ta Chen,  S. Coriani,  C. J. Cramer,  A. E. DePrince, III,  
 R. A. DiStasio Jr.,  A. Dreuw,  B. D. Dunietz,  T. R. Furlani,  
 W. A. Goddard III,  S. Grimme,  S. Hammes-Schiffer,  T. Head-Gordon,  
 W. J. Hehre,  Chao-Ping Hsu,  T.-C. Jagau,  Yousung Jung,  A. Klamt,  
 Jing Kong,  D. S. Lambrecht,  Xiangyuan Li,  WanZhen Liang,  N. J. Mayhall,  
 C. W. McCurdy,  J. B. Neaton,  T. Neudecker,  C. Ochsenfeld,  
 J. A. Parkhill,  R. Peverati,  V. A. Rassolov,  Haisheng Ren,  Yihan Shao,  
 L. V. Slipchenko,  R. P. Steele,  J. E. Subotnik,  A. J. W. Thom,  
 A. Tkatchenko,  D. G. Truhlar,  T. Van Voorhis,  Fan Wang,  
 T. A. Wesolowski,  K. B. Whaley,  H. L. Woodcock III,  P. M. Zimmerman,  
 S. Faraji,  P. M. W. Gill,  M. Head-Gordon,  J. M. Herbert,  A. I. Krylov

 Contributors to earlier versions of Q-Chem not listed above: 
 R. D. Adamson,  B. Austin,  R. Baer,  J. Baker,  G. J. O. Beran,  
 K. Brandhorst,  S. T. Brown,  E. F. C. Byrd,  Arup K. Chakraborty,  
 G. K. L. Chan,  Chun-Min Chang,  Yunqing Chen,  C.-L. Cheng,  
 Siu Hung Chien,  D. M. Chipman,  D. L. Crittenden,  H. Dachsel,  
 R. J. Doerksen,  A. D. Dutoi,  R. G. Edgar,  J. Fosso-Tande,  
 L. Fusti-Molnar,  D. Ghosh,  A. Ghysels,  A. Golubeva-Zadorozhnaya,  
 J. Gonthier,  M. S. Gordon,  S. R. Gwaltney,  G. Hawkins,  J. E. Herr,  
 A. Heyden,  S. Hirata,  E. G. Hohenstein,  G. Kedziora,  F. J. Keil,  
 C. Kelley,  Jihan Kim,  R. A. King,  R. Z. Khaliullin,  P. P. Korambath,  
 W. Kurlancheek,  A. Laurent,  A. M. Lee,  M. S. Lee,  S. V. Levchenko,  
 Ching Yeh Lin,  D. Liotard,  E. Livshits,  R. C. Lochan,  I. Lotan,  
 L. A. Martinez-Martinez,  P. E. Maslen,  N. Nair,  D. P. O'Neill,  
 D. Neuhauser,  E. Neuscamman,  C. M. Oana,  R. Olivares-Amaya,  R. Olson,  
 T. M. Perrine,  B. Peters,  P. A. Pieniazek,  A. Prociuk,  Y. M. Rhee,  
 J. Ritchie,  M. A. Rohrdanz,  E. Rosta,  N. J. Russ,  H. F. Schaefer III,  
 M. W. Schmidt,  N. E. Schultz,  S. Sharma,  N. Shenvi,  C. D. Sherrill,  
 A. C. Simmonett,  A. Sodt,  T. Stein,  D. Stuck,  K. S. Thanthiriwatte,  
 V. Vanovschi,  L. Vogt,  Tao Wang,  A. Warshel,  M. A. Watson,  
 C. F. Williams,  Q. Wu,  X. Xu,  Jun Yang,  W. Zhang,  Yan Zhao

   Please cite Q-Chem as follows:
  "Software for the frontiers of quantum chemistry:
   An overview of developments in the Q-Chem 5 package"
   J. Chem. Phys. 155, 084801 (2021)
   https://doi.org/10.1063/5.0055522 (open access)

 Q-Chem 6.0.0 for Intel X86 EM64T Linux

 Parts of Q-Chem use Armadillo 9.900.5 (Nocturnal Misbehaviour).
 http://arma.sourceforge.net/

 Q-Chem begins on Wed Aug  2 11:41:58 2023  

 Host: 
0

     Scratch files written to /mnt/scratch/hwang/qchem362154//
 Processing $rem in /opt/qchem-6.0.0/config/preferences:
 Processing $rem in /home/hwang/.qchemrc:

 Checking the input file for inconsistencies... 	...done.

--------------------------------------------------------------
User input:
--------------------------------------------------------------
$comment
   ASE generated input file
$end

$rem
   METHOD                      PBE
   BASIS                       CC-PVDZ
   JOBTYPE                     OPT
   DFT_D                       D3_BJ
   GEOM_OPT_MAX_CYCLES         150
   USE_LIBQINTS                1
   MAX_SCF_CYCLES              150
   SYM_IGNORE                  TRUE
$end

$molecule
   0 1
   C  0.334810  0.835780  1.219130
   C  0.194970  -0.708310  1.390590
   C  -0.571280  0.787840  -0.047670
   C  -0.571280  -0.787840  0.047670
   C  0.194970  0.708310  -1.390590
   C  0.334810  -0.835780  -1.219130
   H  1.364710  1.195250  1.016580
   H  -0.074050  1.428730  2.060030
   H  -0.438120  -0.980850  2.258180
   H  1.134550  -1.296180  1.450240
   H  -1.492560  1.400620  -0.014760
   H  -1.492560  -1.400620  0.014760
   H  1.134550  1.296180  -1.450240
   H  -0.438120  0.980850  -2.258180
   H  1.364710  -1.195250  -1.016580
   H  -0.074050  -1.428730  -2.060030
$end

--------------------------------------------------------------
 Adding empirical dispersion correction 
 ----------------------------------------------------------------
 Doing -D3(BJ) with
 s6  =   1.00000
 s8  =   0.78750
 a1  =   0.42890
 a2  =   4.44070
 -D3 energy without 3body term =     -0.0134706227 hartrees
 ----------------------------------------------------------------
             Standard Nuclear Orientation (Angstroms)
    I     Atom           X                Y                Z
 ----------------------------------------------------------------
    1      C       0.3348100000     0.8357800000     1.2191300000
    2      C       0.1949700000    -0.7083100000     1.3905900000
    3      C      -0.5712800000     0.7878400000    -0.0476700000
    4      C      -0.5712800000    -0.7878400000     0.0476700000
    5      C       0.1949700000     0.7083100000    -1.3905900000
    6      C       0.3348100000    -0.8357800000    -1.2191300000
    7      H       1.3647100000     1.1952500000     1.0165800000
    8      H      -0.0740500000     1.4287300000     2.0600300000
    9      H      -0.4381200000    -0.9808500000     2.2581800000
   10      H       1.1345500000    -1.2961800000     1.4502400000
   11      H      -1.4925600000     1.4006200000    -0.0147600000
   12      H      -1.4925600000    -1.4006200000     0.0147600000
   13      H       1.1345500000     1.2961800000    -1.4502400000
   14      H      -0.4381200000     0.9808500000    -2.2581800000
   15      H       1.3647100000    -1.1952500000    -1.0165800000
   16      H      -0.0740500000    -1.4287300000    -2.0600300000
 ----------------------------------------------------------------
 Nuclear Repulsion Energy =         242.10612089 hartrees
 There are       23 alpha and       23 beta electrons
 Requested basis set is cc-pVDZ
 There are 66 shells and 134 basis functions

 Total QAlloc Memory Limit   2000 MB
 Mega-Array Size       188 MB
 MEM_STATIC part       192 MB

 -----------------------------------------------------------------------
                STARTING GEOMETRY OPTIMIZER USING LIBOPT3
                by Peter F. McLaughlin, Yu Zhang, Evgeny Epifanovsky
 -----------------------------------------------------------------------

              Initial Energy and Gradient Calculation
  Checking Topology for Ill-Behaving Coordinates
  Done Checking Topology
 Adding empirical dispersion correction 
 ----------------------------------------------------------------
 Doing -D3(BJ) with
 s6  =   1.00000
 s8  =   0.78750
 a1  =   0.42890
 a2  =   4.44070
 -D3 energy without 3body term =     -0.0134706227 hartrees
 ----------------------------------------------------------------
             Standard Nuclear Orientation (Angstroms)
    I     Atom           X                Y                Z
 ----------------------------------------------------------------
    1      C       0.3348100000     0.8357800000     1.2191300000
    2      C       0.1949700000    -0.7083100000     1.3905900000
    3      C      -0.5712800000     0.7878400000    -0.0476700000
    4      C      -0.5712800000    -0.7878400000     0.0476700000
    5      C       0.1949700000     0.7083100000    -1.3905900000
    6      C       0.3348100000    -0.8357800000    -1.2191300000
    7      H       1.3647100000     1.1952500000     1.0165800000
    8      H      -0.0740500000     1.4287300000     2.0600300000
    9      H      -0.4381200000    -0.9808500000     2.2581800000
   10      H       1.1345500000    -1.2961800000     1.4502400000
   11      H      -1.4925600000     1.4006200000    -0.0147600000
   12      H      -1.4925600000    -1.4006200000     0.0147600000
   13      H       1.1345500000     1.2961800000    -1.4502400000
   14      H      -0.4381200000     0.9808500000    -2.2581800000
   15      H       1.3647100000    -1.1952500000    -1.0165800000
   16      H      -0.0740500000    -1.4287300000    -2.0600300000
 ----------------------------------------------------------------
 Nuclear Repulsion Energy =         242.10612089 hartrees
 There are       23 alpha and       23 beta electrons
 Requested basis set is cc-pVDZ
 There are 66 shells and 134 basis functions
 A cutoff of  1.0D-12 yielded   2199 shell pairs
 There are      9119 function pairs (      9974 Cartesian)
 Smallest overlap matrix eigenvalue = 1.08E-03

 Scale SEOQF with 1.000000e-01/1.000000e+00/1.000000e-01

 Standard Electronic Orientation quadrupole field applied
 Nucleus-field energy     =     0.0000000207 hartrees
 Guess from superposition of atomic densities
 Warning:  Energy on first SCF cycle will be non-variational
 SAD guess density has 46.000000 electrons

 -----------------------------------------------------------------------
  General SCF calculation program by
  Eric Jon Sundstrom, Paul Horn, Yuezhi Mao, Dmitri Zuev, Alec White,
  David Stuck, Shaama M.S., Shane Yost, Joonho Lee, David Small,
  Daniel Levine, Susi Lehtola, Hugh Burton, Evgeny Epifanovsky,
  Bang C. Huynh
 -----------------------------------------------------------------------
 Exchange:  PBE      Correlation:  PBE
 Using SG-1 standard quadrature grid
 Dispersion:   Grimme D3
 A restricted SCF calculation will be
 performed using DIIS
 SCF converges when DIIS error is below 1.0e-08
 ---------------------------------------
  Cycle       Energy         DIIS error
 ---------------------------------------
    1    -235.1499900990      6.00e-02  
    2    -234.0890261334      8.76e-03  
    3    -233.7687228944      1.46e-02  
    4    -234.2918310598      1.19e-03  
    5    -234.2944569264      4.66e-04  
    6    -234.2948801676      1.63e-04  
    7    -234.2949390592      2.57e-05  
    8    -234.2949407992      5.35e-06  
    9    -234.2949408731      1.24e-06  
   10    -234.2949408760      5.72e-07  
   11    -234.2949408768      8.90e-08  
   12    -234.2949408768      6.95e-09  Convergence criterion met
 ---------------------------------------
 SCF time:   CPU 8.16s  wall 2.00s 
 SCF   energy in the final basis set =     -234.2949408768
 Total energy in the final basis set =     -234.2949408768

 --------------------------------------------------------------

                    Orbital Energies (a.u.)
 --------------------------------------------------------------

 Alpha MOs
 -- Occupied --
 -9.8936  -9.8936  -9.8911  -9.8910  -9.8906  -9.8906  -0.7885  -0.6731
 -0.6045  -0.5500  -0.5272  -0.4455  -0.4417  -0.4037  -0.3933  -0.3586
 -0.3308  -0.3003  -0.2966  -0.2823  -0.2551  -0.2386  -0.2287
 -- Virtual --
  0.0307   0.0464   0.0582   0.0695   0.0886   0.0897   0.1066   0.1150
  0.1154   0.1439   0.1605   0.1704   0.1805   0.1859   0.2205   0.3023
  0.3199   0.3368   0.3784   0.4007   0.4274   0.4470   0.4517   0.4756
  0.4762   0.4985   0.4999   0.5286   0.5329   0.5588   0.5631   0.5983
  0.6001   0.6093   0.6231   0.6249   0.6303   0.6367   0.6476   0.6661
  0.6687   0.6729   0.6909   0.7417   0.7653   0.9434   1.0140   1.0445
  1.0541   1.0866   1.1157   1.1311   1.1512   1.2208   1.2788   1.3103
  1.3598   1.3612   1.3690   1.3935   1.4311   1.4467   1.4584   1.4914
  1.5346   1.5685   1.5694   1.5845   1.5876   1.6020   1.6098   1.6133
  1.6362   1.6455   1.6584   1.6648   1.6949   1.7124   1.7590   1.7803
  1.8092   1.8121   1.8549   1.8687   1.8700   1.9180   1.9343   1.9441
  1.9994   2.0189   2.0225   2.0333   2.0428   2.0673   2.1096   2.1140
  2.1535   2.1716   2.2818   2.3166   2.3367   2.3441   2.3803   2.4083
  2.4343   2.4421   2.5220   2.5751   2.6418   2.6937   2.9659
 --------------------------------------------------------------

          Ground-State Mulliken Net Atomic Charges

     Atom                 Charge (a.u.)
  ----------------------------------------
      1 C                     0.023048
      2 C                     0.038037
      3 C                    -0.084775
      4 C                    -0.084775
      5 C                     0.038037
      6 C                     0.023048
      7 H                     0.011358
      8 H                     0.018423
      9 H                     0.017271
     10 H                     0.010256
     11 H                    -0.033618
     12 H                    -0.033618
     13 H                     0.010256
     14 H                     0.017271
     15 H                     0.011358
     16 H                     0.018423
  ----------------------------------------
  Sum of atomic charges =     0.000000

 -----------------------------------------------------------------
                    Cartesian Multipole Moments
 -----------------------------------------------------------------
    Charge (ESU x 10^10)
                 0.0000
    Dipole Moment (Debye)
         X      -0.1311      Y       0.0000      Z       0.0000
       Tot       0.1311
    Quadrupole Moments (Debye-Ang)
        XX     -38.1090     XY      -0.0000     YY     -39.1953
        XZ       0.0000     YZ       0.2197     ZZ     -38.4784
    Octopole Moments (Debye-Ang^2)
       XXX      -0.7381    XXY       0.0000    XYY      -1.0230
       YYY       0.0000    XXZ       0.0000    XYZ      -0.3538
       YYZ       0.0000    XZZ      -3.2065    YZZ      -0.0000
       ZZZ       0.0000
    Hexadecapole Moments (Debye-Ang^3)
      XXXX    -121.7206   XXXY      -0.0000   XXYY     -56.4439
      XYYY      -0.0000   YYYY    -235.9357   XXXZ       0.0000
      XXYZ      -0.8456   XYYZ       0.0000   YYYZ       1.3045
      XXZZ     -82.9304   XYZZ      -0.0000   YYZZ     -99.6618
      XZZZ       0.0000   YZZZ       1.8343   ZZZZ    -368.9786
 -----------------------------------------------------------------
 Calculating analytic gradient of the SCF energy
 Call libqints based aoints job 111
 Call libqints based aoints job 120
 Gradient of SCF Energy
            1           2           3           4           5           6
    1   0.0001519  -0.0001677   0.0001330   0.0001330  -0.0001677   0.0001519
    2   0.0001219   0.0001200   0.0001120  -0.0001120  -0.0001200  -0.0001219
    3   0.0001897   0.0000902   0.0000732  -0.0000732  -0.0000902  -0.0001897
            7           8           9          10          11          12
    1  -0.0001124   0.0000318  -0.0000631   0.0000411  -0.0000146  -0.0000146
    2  -0.0000915  -0.0000362   0.0000427   0.0000959  -0.0000621   0.0000621
    3  -0.0000454   0.0000329  -0.0000338   0.0002461   0.0000679  -0.0000679
           13          14          15          16
    1   0.0000411  -0.0000631  -0.0001124   0.0000318
    2  -0.0000959  -0.0000427   0.0000915   0.0000362
    3  -0.0002461   0.0000338   0.0000454  -0.0000329
 Max gradient component =       2.461E-04
 RMS gradient           =       1.068E-04
 Gradient time:  CPU 14.26 s  wall 3.58 s

 *****************************************************
             Starting BFGS Algorithm
 *****************************************************
            LIBOPT3 RUN PARAMETERS

  Geometry Optimization Coordinates :
	Delocalized Natural Internal Coordinates

  Step Length Selection Method :
	Eigenvector Following Algorithm

  Convergence Criteria :
	Max Gradient Component    	3.00000000e-04
	Max Displacement Component	1.20000000e-03
	Absolute Energy Difference	1.00000000e-06

  Initial Hessian :
	Approximate Hessian - Simple Internal Coordinate Scaled

  Type of Verification :
	Verify with final updated Hessian
 *****************************************************

	OPTIMIZATION CYCLE:	1

 Scaling Magnitude of Eigenvalues
 	Minimum: -25.00000000	 Maximum: 25.00000000
 42 Hessian Eigenvalues to form next step
   0.10004041   0.10336736   0.11121043   0.11485111   0.11519787
   0.11813631   0.11843474   0.12494390   0.12658502   0.12966859
   0.12970296   0.12993102   0.12993442   0.13216673   0.13239198
   0.13441023   0.13600908   0.13823936   0.13916718   0.14179349
   0.14858753   0.14958129   0.15079991   0.15329368   0.18048425
   0.28211928   0.38436062   0.40726107   0.43745005   0.49808552
   0.49932222   0.50000000   0.50000000   0.50000000   0.50000000
   0.50000000   0.50000000   0.50000000   0.50000000   0.50000000
   0.50000000   0.50000000

 Minimum Search taking a RFO step
 Searching for Lambda that minimizes along all modes
	Value of Lambda  -0.00000463
	Norm of Stepsize  0.00572452
	RMS of Stepsize  0.00088331

	Performing Iterative Coordinate Back-Transformation

	  Starting from Previous Position

	  iter:	0	rms: 1.6425722165e-03	maxdev: 4.7541510370e-03
	  iter:	1	rms: 1.0066357022e-06	maxdev: 2.8899212350e-06
	  iter:	2	rms: 4.4291273273e-13	maxdev: 1.4985661335e-12	 Success!

	Finished Iterative Coordinate Back-Transformation
 Adding empirical dispersion correction 
 ----------------------------------------------------------------
 Doing -D3(BJ) with
 s6  =   1.00000e+00
 s8  =   7.87500e-01
 a1  =   4.28900e-01
 a2  =   4.44070e+00
 -D3 energy without 3body term =     -1.3473691497e-02 hartrees
 ----------------------------------------------------------------
             Standard Nuclear Orientation (Angstroms)
    I     Atom           X                Y                Z
 ----------------------------------------------------------------
    1      C       0.3345744357     0.8357075129     1.2181807135
    2      C       0.1953050359    -0.7085395160     1.3898244269
    3      C      -0.5722594376     0.7878066587    -0.0478857231
    4      C      -0.5722594376    -0.7878066587     0.0478857231
    5      C       0.1953050359     0.7085395160    -1.3898244269
    6      C       0.3345744357    -0.8357075129    -1.2181807135
    7      H       1.3643262243     1.1954373886     1.0145602563
    8      H      -0.0735477996     1.4289314960     2.0592548570
    9      H      -0.4366242784    -0.9812200601     2.2582219988
   10      H       1.1347814166    -1.2967327061     1.4477238437
   11      H      -1.4935255969     1.4006603619    -0.0152710000
   12      H      -1.4935255969    -1.4006603619     0.0152710000
   13      H       1.1347814166     1.2967327061    -1.4477238437
   14      H      -0.4366242784     0.9812200601    -2.2582219988
   15      H       1.3643262243    -1.1954373886    -1.0145602563
   16      H      -0.0735477996    -1.4289314960    -2.0592548570
 ----------------------------------------------------------------
 Nuclear Repulsion Energy =         242.13584887 hartrees
 There are       23 alpha and       23 beta electrons
 Applying Cartesian multipole field
    Component          Value
    ---------          -----
     (2,0,0)        1.00000E-11
     (0,2,0)        2.00000E-10
     (0,0,2)       -3.00000E-11
 Nucleus-field energy     = 2.0683125773e-08 hartrees
 Requested basis set is cc-pVDZ
 There are 66 shells and 134 basis functions
 A cutoff of  1.0D-12 yielded   2199 shell pairs
 There are      9119 function pairs (      9974 Cartesian)
 Smallest overlap matrix eigenvalue = 1.08E-03
 Guess MOs from SCF MO coefficient file

 -----------------------------------------------------------------------
  General SCF calculation program by
  Eric Jon Sundstrom, Paul Horn, Yuezhi Mao, Dmitri Zuev, Alec White,
  David Stuck, Shaama M.S., Shane Yost, Joonho Lee, David Small,
  Daniel Levine, Susi Lehtola, Hugh Burton, Evgeny Epifanovsky,
  Bang C. Huynh
 -----------------------------------------------------------------------
 Exchange:  PBE      Correlation:  PBE
 Using SG-1 standard quadrature grid
 Dispersion:   Grimme D3
 A restricted SCF calculation will be
 performed using DIIS
 SCF converges when DIIS error is below 1.0e-08
 ---------------------------------------
  Cycle       Energy         DIIS error
 ---------------------------------------
    1    -234.2949428900      1.95e-05  
    2    -234.2949444752      2.06e-06  
    3    -234.2949444615      3.24e-06  
    4    -234.2949444847      2.03e-07  
    5    -234.2949444848      1.01e-07  
    6    -234.2949444849      2.98e-08  
    7    -234.2949444849      4.52e-09  Convergence criterion met
 ---------------------------------------
 SCF time:   CPU 6.50s  wall 1.00s 
 SCF   energy in the final basis set =     -234.2949444849
 Total energy in the final basis set =     -234.2949444849

 --------------------------------------------------------------

                    Orbital Energies (a.u.)
 --------------------------------------------------------------

 Alpha MOs
 -- Occupied --
 -9.8936  -9.8936  -9.8911  -9.8911  -9.8906  -9.8906  -0.7886  -0.6730
 -0.6046  -0.5500  -0.5272  -0.4455  -0.4417  -0.4037  -0.3934  -0.3585
 -0.3309  -0.3003  -0.2966  -0.2823  -0.2552  -0.2385  -0.2288
 -- Virtual --
  0.0308   0.0464   0.0582   0.0696   0.0886   0.0898   0.1065   0.1150
  0.1154   0.1439   0.1604   0.1705   0.1806   0.1859   0.2206   0.3023
  0.3198   0.3369   0.3783   0.4007   0.4274   0.4471   0.4518   0.4756
  0.4760   0.4987   0.4998   0.5286   0.5329   0.5588   0.5631   0.5983
  0.6002   0.6094   0.6231   0.6249   0.6303   0.6368   0.6476   0.6661
  0.6686   0.6730   0.6909   0.7415   0.7653   0.9435   1.0138   1.0443
  1.0546   1.0866   1.1164   1.1311   1.1510   1.2207   1.2787   1.3102
  1.3598   1.3613   1.3690   1.3934   1.4314   1.4469   1.4582   1.4913
  1.5347   1.5684   1.5694   1.5845   1.5880   1.6023   1.6097   1.6132
  1.6359   1.6455   1.6585   1.6648   1.6950   1.7130   1.7588   1.7805
  1.8090   1.8121   1.8551   1.8687   1.8701   1.9180   1.9344   1.9441
  1.9992   2.0192   2.0226   2.0331   2.0428   2.0674   2.1096   2.1146
  2.1533   2.1717   2.2817   2.3167   2.3366   2.3439   2.3805   2.4084
  2.4342   2.4422   2.5222   2.5754   2.6419   2.6938   2.9664
 --------------------------------------------------------------

          Ground-State Mulliken Net Atomic Charges

     Atom                 Charge (a.u.)
  ----------------------------------------
      1 C                     0.023026
      2 C                     0.038090
      3 C                    -0.084683
      4 C                    -0.084683
      5 C                     0.038090
      6 C                     0.023026
      7 H                     0.011386
      8 H                     0.018385
      9 H                     0.017194
     10 H                     0.010285
     11 H                    -0.033683
     12 H                    -0.033683
     13 H                     0.010285
     14 H                     0.017194
     15 H                     0.011386
     16 H                     0.018385
  ----------------------------------------
  Sum of atomic charges =     0.000000

 -----------------------------------------------------------------
                    Cartesian Multipole Moments
 -----------------------------------------------------------------
    Charge (ESU x 10^10)
                 0.0000
    Dipole Moment (Debye)
         X      -0.1315      Y       0.0000      Z      -0.0000
       Tot       0.1315
    Quadrupole Moments (Debye-Ang)
        XX     -38.1110     XY       0.0000     YY     -39.1906
        XZ      -0.0000     YZ       0.2191     ZZ     -38.4845
    Octopole Moments (Debye-Ang^2)
       XXX      -0.7244    XXY      -0.0000    XYY      -1.0136
       YYY       0.0000    XXZ      -0.0000    XYZ      -0.3542
       YYZ      -0.0000    XZZ      -3.1996    YZZ       0.0000
       ZZZ      -0.0000
    Hexadecapole Moments (Debye-Ang^3)
      XXXX    -121.8030   XXXY       0.0000   XXYY     -56.4616
      XYYY       0.0000   YYYY    -235.9576   XXXZ      -0.0000
      XXYZ      -0.8356   XYYZ      -0.0000   YYYZ       1.3385
      XXZZ     -82.8955   XYZZ       0.0000   YYZZ     -99.5993
      XZZZ      -0.0000   YZZZ       1.8688   ZZZZ    -368.5889
 -----------------------------------------------------------------
 Calculating analytic gradient of the SCF energy
 Call libqints based aoints job 111
 Call libqints based aoints job 120
 Gradient of SCF Energy
            1           2           3           4           5           6
    1   0.0000419  -0.0000457   0.0001038   0.0001038  -0.0000457   0.0000419
    2   0.0000688   0.0000341   0.0001064  -0.0001064  -0.0000341  -0.0000688
    3   0.0000707  -0.0000207  -0.0000083   0.0000083   0.0000207  -0.0000707
            7           8           9          10          11          12
    1  -0.0000375   0.0000317  -0.0000731   0.0000274  -0.0000484  -0.0000484
    2  -0.0000700   0.0000089   0.0000384   0.0000532  -0.0000732   0.0000732
    3  -0.0000785  -0.0000002  -0.0000463   0.0002148   0.0000483  -0.0000483
           13          14          15          16
    1   0.0000274  -0.0000731  -0.0000375   0.0000317
    2  -0.0000532  -0.0000384   0.0000700  -0.0000089
    3  -0.0002148   0.0000463   0.0000785   0.0000002
 Max gradient component =       2.148E-04
 RMS gradient           =       7.059E-05
 Gradient time:  CPU 14.28 s  wall 3.57 s

     Step 1	:
        Energy is -234.2949444849
                            Maximum         Tolerance       Converged?
         Gradient           3.38105689e-04	3.00000000e-04	false
         Displacement       4.36977078e-03	1.20000000e-03	false
         Energy change      3.60807223e-06	1.00000000e-06	false


	OPTIMIZATION CYCLE:	2

 Scaling Magnitude of Eigenvalues
 	Minimum: -25.00000000	 Maximum: 25.00000000
 42 Hessian Eigenvalues to form next step
   0.04583057   0.10336736   0.10738311   0.11345260   0.11485111
   0.11813631   0.11843474   0.12019068   0.12542918   0.12957930
   0.12966859   0.12993102   0.13000760   0.13223193   0.13239198
   0.13441023   0.13623264   0.13823936   0.13917172   0.14179349
   0.14238929   0.14958129   0.15329368   0.15694978   0.18876290
   0.28229645   0.38436062   0.40712366   0.43745005   0.49772928
   0.49924604   0.49932222   0.50000000   0.50000000   0.50000000
   0.50000000   0.50000000   0.50000000   0.50000000   0.50000000
   0.50000000   0.50838812

 Minimum Search taking a RFO step
 Searching for Lambda that minimizes along all modes
	Value of Lambda  -0.00000461
	Norm of Stepsize  0.00995469
	RMS of Stepsize  0.00153604

	Performing Iterative Coordinate Back-Transformation

	  Starting from Previous Position

	  iter:	0	rms: 2.4856946942e-03	maxdev: 8.1319607557e-03
	  iter:	1	rms: 2.7762040310e-06	maxdev: 9.1870453440e-06
	  iter:	2	rms: 3.5120542803e-12	maxdev: 1.3332157570e-11	 Success!

	Finished Iterative Coordinate Back-Transformation
 Adding empirical dispersion correction 
 ----------------------------------------------------------------
 Doing -D3(BJ) with
 s6  =   1.00000e+00
 s8  =   7.87500e-01
 a1  =   4.28900e-01
 a2  =   4.44070e+00
 -D3 energy without 3body term =     -1.3477601383e-02 hartrees
 ----------------------------------------------------------------
             Standard Nuclear Orientation (Angstroms)
    I     Atom           X                Y                Z
 ----------------------------------------------------------------
    1      C       0.3340664393     0.8358245724     1.2170974054
    2      C       0.1958003877    -0.7086514967     1.3887049745
    3      C      -0.5737180319     0.7877670227    -0.0481180075
    4      C      -0.5737180319    -0.7877670227     0.0481180075
    5      C       0.1958003877     0.7086514967    -1.3887049745
    6      C       0.3340664393    -0.8358245724    -1.2170974054
    7      H       1.3634990198     1.1962023394     1.0121062851
    8      H      -0.0730239349     1.4293037535     2.0585172287
    9      H      -0.4340197688    -0.9816153225     2.2585695529
   10      H       1.1351740671    -1.2972275955     1.4434197972
   11      H      -1.4947481783     1.4010042453    -0.0160136591
   12      H      -1.4947481783    -1.4010042453     0.0160136591
   13      H       1.1351740671     1.2972275955    -1.4434197972
   14      H      -0.4340197688     0.9816153225    -2.2585695529
   15      H       1.3634990198    -1.1962023394    -1.0121062851
   16      H      -0.0730239349    -1.4293037535    -2.0585172287
 ----------------------------------------------------------------
 Nuclear Repulsion Energy =         242.17106203 hartrees
 There are       23 alpha and       23 beta electrons
 Applying Cartesian multipole field
    Component          Value
    ---------          -----
     (2,0,0)        1.00000E-11
     (0,2,0)        2.00000E-10
     (0,0,2)       -3.00000E-11
 Nucleus-field energy     = 2.0706131598e-08 hartrees
 Requested basis set is cc-pVDZ
 There are 66 shells and 134 basis functions
 A cutoff of  1.0D-12 yielded   2199 shell pairs
 There are      9119 function pairs (      9974 Cartesian)
 Smallest overlap matrix eigenvalue = 1.08E-03
 Guess MOs from SCF MO coefficient file

 -----------------------------------------------------------------------
  General SCF calculation program by
  Eric Jon Sundstrom, Paul Horn, Yuezhi Mao, Dmitri Zuev, Alec White,
  David Stuck, Shaama M.S., Shane Yost, Joonho Lee, David Small,
  Daniel Levine, Susi Lehtola, Hugh Burton, Evgeny Epifanovsky,
  Bang C. Huynh
 -----------------------------------------------------------------------
 Exchange:  PBE      Correlation:  PBE
 Using SG-1 standard quadrature grid
 Dispersion:   Grimme D3
 A restricted SCF calculation will be
 performed using DIIS
 SCF converges when DIIS error is below 1.0e-08
 ---------------------------------------
  Cycle       Energy         DIIS error
 ---------------------------------------
    1    -234.2949434179      3.04e-05  
    2    -234.2949472313      2.75e-06  
    3    -234.2949472071      4.31e-06  
    4    -234.2949472486      2.86e-07  
    5    -234.2949472488      1.27e-07  
    6    -234.2949472488      4.37e-08  
    7    -234.2949472488      7.60e-09  Convergence criterion met
 ---------------------------------------
 SCF time:   CPU 6.49s  wall 1.00s 
 SCF   energy in the final basis set =     -234.2949472488
 Total energy in the final basis set =     -234.2949472488

 --------------------------------------------------------------

                    Orbital Energies (a.u.)
 --------------------------------------------------------------

 Alpha MOs
 -- Occupied --
 -9.8936  -9.8936  -9.8911  -9.8911  -9.8906  -9.8906  -0.7887  -0.6729
 -0.6047  -0.5500  -0.5271  -0.4456  -0.4418  -0.4036  -0.3935  -0.3584
 -0.3310  -0.3004  -0.2965  -0.2823  -0.2552  -0.2384  -0.2288
 -- Virtual --
  0.0308   0.0463   0.0582   0.0696   0.0887   0.0899   0.1064   0.1149
  0.1154   0.1439   0.1604   0.1706   0.1806   0.1860   0.2207   0.3024
  0.3198   0.3369   0.3782   0.4007   0.4276   0.4471   0.4519   0.4756
  0.4758   0.4989   0.4998   0.5287   0.5328   0.5587   0.5631   0.5983
  0.6003   0.6095   0.6231   0.6249   0.6303   0.6369   0.6476   0.6661
  0.6685   0.6732   0.6910   0.7414   0.7653   0.9436   1.0133   1.0439
  1.0552   1.0867   1.1175   1.1311   1.1508   1.2207   1.2785   1.3100
  1.3599   1.3615   1.3691   1.3931   1.4319   1.4473   1.4579   1.4911
  1.5349   1.5682   1.5693   1.5845   1.5887   1.6025   1.6095   1.6132
  1.6355   1.6456   1.6587   1.6647   1.6951   1.7140   1.7586   1.7808
  1.8088   1.8121   1.8554   1.8688   1.8702   1.9182   1.9346   1.9440
  1.9988   2.0195   2.0225   2.0329   2.0428   2.0673   2.1096   2.1156
  2.1531   2.1719   2.2817   2.3170   2.3365   2.3436   2.3807   2.4085
  2.4341   2.4424   2.5223   2.5757   2.6420   2.6938   2.9674
 --------------------------------------------------------------

          Ground-State Mulliken Net Atomic Charges

     Atom                 Charge (a.u.)
  ----------------------------------------
      1 C                     0.022925
      2 C                     0.038205
      3 C                    -0.084529
      4 C                    -0.084529
      5 C                     0.038205
      6 C                     0.022925
      7 H                     0.011411
      8 H                     0.018332
      9 H                     0.017111
     10 H                     0.010325
     11 H                    -0.033780
     12 H                    -0.033780
     13 H                     0.010325
     14 H                     0.017111
     15 H                     0.011411
     16 H                     0.018332
  ----------------------------------------
  Sum of atomic charges =     0.000000

 -----------------------------------------------------------------
                    Cartesian Multipole Moments
 -----------------------------------------------------------------
    Charge (ESU x 10^10)
                 0.0000
    Dipole Moment (Debye)
         X      -0.1318      Y       0.0000      Z      -0.0000
       Tot       0.1318
    Quadrupole Moments (Debye-Ang)
        XX     -38.1163     XY       0.0000     YY     -39.1828
        XZ       0.0000     YZ       0.2200     ZZ     -38.4906
    Octopole Moments (Debye-Ang^2)
       XXX      -0.6979    XXY      -0.0000    XYY      -0.9981
       YYY      -0.0000    XXZ       0.0000    XYZ      -0.3526
       YYZ      -0.0000    XZZ      -3.1895    YZZ       0.0000
       ZZZ      -0.0000
    Hexadecapole Moments (Debye-Ang^3)
      XXXX    -121.9132   XXXY       0.0000   XXYY     -56.4860
      XYYY       0.0000   YYYY    -235.9988   XXXZ       0.0000
      XXYZ      -0.8302   XYYZ       0.0000   YYYZ       1.3516
      XXZZ     -82.8573   XYZZ       0.0000   YYZZ     -99.5217
      XZZZ       0.0000   YZZZ       1.8829   ZZZZ    -368.0491
 -----------------------------------------------------------------
 Calculating analytic gradient of the SCF energy
 Call libqints based aoints job 111
 Call libqints based aoints job 120
 Gradient of SCF Energy
            1           2           3           4           5           6
    1  -0.0000945   0.0001008   0.0000538   0.0000538   0.0001008  -0.0000945
    2   0.0000169  -0.0000421   0.0000935  -0.0000935   0.0000421  -0.0000169
    3  -0.0000092  -0.0001507  -0.0000720   0.0000720   0.0001507   0.0000092
            7           8           9          10          11          12
    1   0.0000410   0.0000585  -0.0000788  -0.0000171  -0.0000636  -0.0000636
    2  -0.0000358   0.0000837   0.0000590  -0.0000065  -0.0000752   0.0000752
    3  -0.0001128  -0.0000296  -0.0000323   0.0001257   0.0000338  -0.0000338
           13          14          15          16
    1  -0.0000171  -0.0000788   0.0000410   0.0000585
    2   0.0000065  -0.0000590   0.0000358  -0.0000837
    3  -0.0001257   0.0000323   0.0001128   0.0000296
 Max gradient component =       1.507E-04
 RMS gradient           =       7.231E-05
 Gradient time:  CPU 14.26 s  wall 3.57 s

     Step 2	:
        Energy is -234.2949472488
                            Maximum         Tolerance       Converged?
         Gradient           1.51417440e-04	3.00000000e-04	true
         Displacement       6.19289598e-03	1.20000000e-03	false
         Energy change      2.76396048e-06	1.00000000e-06	false


	OPTIMIZATION CYCLE:	3

 Scaling Magnitude of Eigenvalues
 	Minimum: -25.00000000	 Maximum: 25.00000000
 42 Hessian Eigenvalues to form next step
   0.02920527   0.10336736   0.10882384   0.11384941   0.11485111
   0.11813631   0.11843474   0.12340787   0.12551121   0.12966859
   0.12970651   0.12993102   0.13020027   0.13239198   0.13278631
   0.13441023   0.13649856   0.13823936   0.13913411   0.14179349
   0.14671546   0.14958129   0.15329368   0.17005173   0.19226212
   0.28344129   0.38436062   0.40745720   0.43745005   0.49920401
   0.49932222   0.49934057   0.50000000   0.50000000   0.50000000
   0.50000000   0.50000000   0.50000000   0.50000000   0.50000000
   0.50007876   0.53042447

 Minimum Search taking a RFO step
 Searching for Lambda that minimizes along all modes
	Value of Lambda  -0.00000118
	Norm of Stepsize  0.00542031
	RMS of Stepsize  0.00083637

	Performing Iterative Coordinate Back-Transformation

	  Starting from Previous Position

	  iter:	0	rms: 9.4199801295e-04	maxdev: 2.9961074084e-03
	  iter:	1	rms: 4.7215272143e-07	maxdev: 1.5378874312e-06	 Success!

	Finished Iterative Coordinate Back-Transformation
 Adding empirical dispersion correction 
 ----------------------------------------------------------------
 Doing -D3(BJ) with
 s6  =   1.00000e+00
 s8  =   7.87500e-01
 a1  =   4.28900e-01
 a2  =   4.44070e+00
 -D3 energy without 3body term =     -1.3478194399e-02 hartrees
 ----------------------------------------------------------------
             Standard Nuclear Orientation (Angstroms)
    I     Atom           X                Y                Z
 ----------------------------------------------------------------
    1      C       0.3337069668     0.8359560172     1.2169615543
    2      C       0.1960355961    -0.7085796775     1.3884719662
    3      C      -0.5741410351     0.7877574169    -0.0482327542
    4      C      -0.5741410351    -0.7877574169     0.0482327542
    5      C       0.1960355961     0.7085796775    -1.3884719662
    6      C       0.3337069668    -0.8359560172    -1.2169615543
    7      H       1.3629688839     1.1968169751     1.0118563251
    8      H      -0.0733379063     1.4293216664     2.0584899217
    9      H      -0.4328115851    -0.9818218907     2.2589572548
   10      H       1.1355243601    -1.2970570558     1.4418341755
   11      H      -1.4949152804     1.4013741159    -0.0164466822
   12      H      -1.4949152804    -1.4013741159     0.0164466822
   13      H       1.1355243601     1.2970570558    -1.4418341755
   14      H      -0.4328115851     0.9818218907    -2.2589572548
   15      H       1.3629688839    -1.1968169751    -1.0118563251
   16      H      -0.0733379063    -1.4293216664    -2.0584899217
 ----------------------------------------------------------------
 Nuclear Repulsion Energy =         242.17456116 hartrees
 There are       23 alpha and       23 beta electrons
 Applying Cartesian multipole field
    Component          Value
    ---------          -----
     (2,0,0)        1.00000E-11
     (0,2,0)        2.00000E-10
     (0,0,2)       -3.00000E-11
 Nucleus-field energy     = 2.0712654655e-08 hartrees
 Requested basis set is cc-pVDZ
 There are 66 shells and 134 basis functions
 A cutoff of  1.0D-12 yielded   2199 shell pairs
 There are      9119 function pairs (      9974 Cartesian)
 Smallest overlap matrix eigenvalue = 1.08E-03
 Guess MOs from SCF MO coefficient file

 -----------------------------------------------------------------------
  General SCF calculation program by
  Eric Jon Sundstrom, Paul Horn, Yuezhi Mao, Dmitri Zuev, Alec White,
  David Stuck, Shaama M.S., Shane Yost, Joonho Lee, David Small,
  Daniel Levine, Susi Lehtola, Hugh Burton, Evgeny Epifanovsky,
  Bang C. Huynh
 -----------------------------------------------------------------------
 Exchange:  PBE      Correlation:  PBE
 Using SG-1 standard quadrature grid
 Dispersion:   Grimme D3
 A restricted SCF calculation will be
 performed using DIIS
 SCF converges when DIIS error is below 1.0e-08
 ---------------------------------------
  Cycle       Energy         DIIS error
 ---------------------------------------
    1    -234.2949476717      1.19e-05  
    2    -234.2949482505      7.32e-07  
    3    -234.2949482493      1.05e-06  
    4    -234.2949482518      1.26e-07  
    5    -234.2949482518      2.08e-08  
    6    -234.2949482518      1.43e-08  
    7    -234.2949482518      1.85e-09  Convergence criterion met
 ---------------------------------------
 SCF time:   CPU 6.50s  wall 2.00s 
 SCF   energy in the final basis set =     -234.2949482518
 Total energy in the final basis set =     -234.2949482518

 --------------------------------------------------------------

                    Orbital Energies (a.u.)
 --------------------------------------------------------------

 Alpha MOs
 -- Occupied --
 -9.8936  -9.8936  -9.8911  -9.8911  -9.8906  -9.8906  -0.7887  -0.6729
 -0.6048  -0.5500  -0.5271  -0.4456  -0.4418  -0.4035  -0.3936  -0.3584
 -0.3310  -0.3004  -0.2964  -0.2823  -0.2552  -0.2384  -0.2289
 -- Virtual --
  0.0308   0.0462   0.0582   0.0696   0.0887   0.0899   0.1064   0.1149
  0.1154   0.1439   0.1604   0.1706   0.1806   0.1861   0.2207   0.3025
  0.3198   0.3368   0.3781   0.4007   0.4276   0.4471   0.4519   0.4756
  0.4758   0.4989   0.4998   0.5287   0.5328   0.5586   0.5630   0.5982
  0.6004   0.6096   0.6231   0.6249   0.6303   0.6369   0.6476   0.6662
  0.6685   0.6733   0.6910   0.7413   0.7653   0.9437   1.0131   1.0438
  1.0554   1.0867   1.1178   1.1311   1.1508   1.2207   1.2784   1.3100
  1.3598   1.3615   1.3692   1.3929   1.4320   1.4475   1.4579   1.4910
  1.5349   1.5681   1.5693   1.5845   1.5889   1.6026   1.6095   1.6132
  1.6352   1.6456   1.6588   1.6647   1.6951   1.7142   1.7585   1.7809
  1.8086   1.8123   1.8556   1.8688   1.8702   1.9183   1.9346   1.9439
  1.9987   2.0197   2.0224   2.0328   2.0428   2.0672   2.1096   2.1159
  2.1530   2.1720   2.2817   2.3171   2.3364   2.3436   2.3807   2.4086
  2.4341   2.4425   2.5222   2.5758   2.6420   2.6938   2.9679
 --------------------------------------------------------------

          Ground-State Mulliken Net Atomic Charges

     Atom                 Charge (a.u.)
  ----------------------------------------
      1 C                     0.022903
      2 C                     0.038219
      3 C                    -0.084478
      4 C                    -0.084478
      5 C                     0.038219
      6 C                     0.022903
      7 H                     0.011407
      8 H                     0.018321
      9 H                     0.017098
     10 H                     0.010341
     11 H                    -0.033812
     12 H                    -0.033812
     13 H                     0.010341
     14 H                     0.017098
     15 H                     0.011407
     16 H                     0.018321
  ----------------------------------------
  Sum of atomic charges =     0.000000

 -----------------------------------------------------------------
                    Cartesian Multipole Moments
 -----------------------------------------------------------------
    Charge (ESU x 10^10)
                -0.0000
    Dipole Moment (Debye)
         X      -0.1315      Y       0.0000      Z       0.0000
       Tot       0.1315
    Quadrupole Moments (Debye-Ang)
        XX     -38.1193     XY      -0.0000     YY     -39.1801
        XZ       0.0000     YZ       0.2204     ZZ     -38.4904
    Octopole Moments (Debye-Ang^2)
       XXX      -0.6846    XXY      -0.0000    XYY      -0.9933
       YYY      -0.0000    XXZ       0.0000    XYZ      -0.3510
       YYZ       0.0000    XZZ      -3.1863    YZZ       0.0000
       ZZZ       0.0000
    Hexadecapole Moments (Debye-Ang^3)
      XXXX    -121.9345   XXXY       0.0000   XXYY     -56.4906
      XYYY       0.0000   YYYY    -236.0173   XXXZ       0.0000
      XXYZ      -0.8310   XYYZ       0.0000   YYYZ       1.3405
      XXZZ     -82.8555   XYZZ      -0.0000   YYZZ     -99.5116
      XZZZ       0.0000   YZZZ       1.8697   ZZZZ    -367.9307
 -----------------------------------------------------------------
 Calculating analytic gradient of the SCF energy
 Call libqints based aoints job 111
 Call libqints based aoints job 120
 Gradient of SCF Energy
            1           2           3           4           5           6
    1  -0.0001292   0.0001260   0.0000327   0.0000327   0.0001260  -0.0001292
    2  -0.0000071  -0.0000498   0.0000752  -0.0000752   0.0000498   0.0000071
    3   0.0000070  -0.0001298  -0.0000810   0.0000810   0.0001298  -0.0000070
            7           8           9          10          11          12
    1   0.0000429   0.0000791  -0.0000706  -0.0000360  -0.0000450  -0.0000450
    2  -0.0000273   0.0001014   0.0000762  -0.0000235  -0.0000594   0.0000594
    3  -0.0001158  -0.0000296  -0.0000125   0.0000831   0.0000295  -0.0000295
           13          14          15          16
    1  -0.0000360  -0.0000706   0.0000429   0.0000791
    2   0.0000235  -0.0000762   0.0000273  -0.0001014
    3  -0.0000831   0.0000125   0.0001158   0.0000296
 Max gradient component =       1.298E-04
 RMS gradient           =       7.211E-05
 Gradient time:  CPU 14.26 s  wall 3.57 s

     Step 3	:
        Energy is -234.2949482518
                            Maximum         Tolerance       Converged?
         Gradient           2.23447182e-04	3.00000000e-04	true
         Displacement       3.27659940e-03	1.20000000e-03	false
         Energy change      1.00297839e-06	1.00000000e-06	false


	OPTIMIZATION CYCLE:	4

 Scaling Magnitude of Eigenvalues
 	Minimum: -25.00000000	 Maximum: 25.00000000
 42 Hessian Eigenvalues to form next step
   0.00951915   0.10336736   0.11057558   0.11450539   0.11485111
   0.11813631   0.11843474   0.12527956   0.12710691   0.12943846
   0.12966859   0.12986011   0.12993102   0.13239198   0.13425377
   0.13441023   0.13619044   0.13823936   0.13898415   0.14179349
   0.14688505   0.14958129   0.15329368   0.16351870   0.18565035
   0.28190139   0.38436062   0.40762528   0.43745005   0.49668205
   0.49932222   0.49951914   0.49981165   0.50000000   0.50000000
   0.50000000   0.50000000   0.50000000   0.50000000   0.50000000
   0.50007530   0.50212980

 Minimum Search taking a RFO step
 Searching for Lambda that minimizes along all modes
	Value of Lambda  -0.00000387
	Norm of Stepsize  0.01892112
	RMS of Stepsize  0.00291959

	Performing Iterative Coordinate Back-Transformation

	  Starting from Previous Position

	  iter:	0	rms: 2.9488554142e-03	maxdev: 7.6666466090e-03
	  iter:	1	rms: 4.0310078551e-06	maxdev: 1.1579864588e-05
	  iter:	2	rms: 3.4430955217e-12	maxdev: 1.1221773180e-11	 Success!

	Finished Iterative Coordinate Back-Transformation
 Adding empirical dispersion correction 
 ----------------------------------------------------------------
 Doing -D3(BJ) with
 s6  =   1.00000e+00
 s8  =   7.87500e-01
 a1  =   4.28900e-01
 a2  =   4.44070e+00
 -D3 energy without 3body term =     -1.3478334846e-02 hartrees
 ----------------------------------------------------------------
             Standard Nuclear Orientation (Angstroms)
    I     Atom           X                Y                Z
 ----------------------------------------------------------------
    1      C       0.3324339125     0.8365266822     1.2170304776
    2      C       0.1968604772    -0.7081601258     1.3880878390
    3      C      -0.5749979894     0.7877368994    -0.0485909532
    4      C      -0.5749979894    -0.7877368994     0.0485909532
    5      C       0.1968604772     0.7081601258    -1.3880878390
    6      C       0.3324339125    -0.8365266822    -1.2170304776
    7      H       1.3611771490     1.1992520770     1.0126046133
    8      H      -0.0754927534     1.4290968016     2.0587022022
    9      H      -0.4291637643    -0.9826786544     2.2601856226
   10      H       1.1370759966    -1.2957184769     1.4377755232
   11      H      -1.4948630281     1.4027205018    -0.0179118923
   12      H      -1.4948630281    -1.4027205018     0.0179118923
   13      H       1.1370759966     1.2957184769    -1.4377755232
   14      H      -0.4291637643     0.9826786544    -2.2601856226
   15      H       1.3611771490    -1.1992520770    -1.0126046133
   16      H      -0.0754927534    -1.4290968016    -2.0587022022
 ----------------------------------------------------------------
 Nuclear Repulsion Energy =         242.17025641 hartrees
 There are       23 alpha and       23 beta electrons
 Applying Cartesian multipole field
    Component          Value
    ---------          -----
     (2,0,0)        1.00000E-11
     (0,2,0)        2.00000E-10
     (0,0,2)       -3.00000E-11
 Nucleus-field energy     = 2.0727509980e-08 hartrees
 Requested basis set is cc-pVDZ
 There are 66 shells and 134 basis functions
 A cutoff of  1.0D-12 yielded   2199 shell pairs
 There are      9119 function pairs (      9974 Cartesian)
 Smallest overlap matrix eigenvalue = 1.07E-03
 Guess MOs from SCF MO coefficient file

 -----------------------------------------------------------------------
  General SCF calculation program by
  Eric Jon Sundstrom, Paul Horn, Yuezhi Mao, Dmitri Zuev, Alec White,
  David Stuck, Shaama M.S., Shane Yost, Joonho Lee, David Small,
  Daniel Levine, Susi Lehtola, Hugh Burton, Evgeny Epifanovsky,
  Bang C. Huynh
 -----------------------------------------------------------------------
 Exchange:  PBE      Correlation:  PBE
 Using SG-1 standard quadrature grid
 Dispersion:   Grimme D3
 A restricted SCF calculation will be
 performed using DIIS
 SCF converges when DIIS error is below 1.0e-08
 ---------------------------------------
  Cycle       Energy         DIIS error
 ---------------------------------------
    1    -234.2949455236      3.66e-05  
    2    -234.2949509616      1.68e-06  
    3    -234.2949509590      2.05e-06  
    4    -234.2949509684      4.31e-07  
    5    -234.2949509688      5.65e-08  
    6    -234.2949509688      2.30e-08  
    7    -234.2949509688      6.49e-09  Convergence criterion met
 ---------------------------------------
 SCF time:   CPU 6.53s  wall 2.00s 
 SCF   energy in the final basis set =     -234.2949509688
 Total energy in the final basis set =     -234.2949509688

 --------------------------------------------------------------

                    Orbital Energies (a.u.)
 --------------------------------------------------------------

 Alpha MOs
 -- Occupied --
 -9.8936  -9.8936  -9.8911  -9.8911  -9.8906  -9.8906  -0.7887  -0.6729
 -0.6048  -0.5500  -0.5271  -0.4456  -0.4418  -0.4035  -0.3937  -0.3584
 -0.3311  -0.3003  -0.2963  -0.2823  -0.2552  -0.2384  -0.2291
 -- Virtual --
  0.0309   0.0461   0.0582   0.0696   0.0887   0.0900   0.1062   0.1149
  0.1155   0.1438   0.1603   0.1708   0.1805   0.1862   0.2206   0.3027
  0.3199   0.3367   0.3780   0.4007   0.4277   0.4471   0.4521   0.4755
  0.4757   0.4990   0.5000   0.5286   0.5327   0.5586   0.5628   0.5982
  0.6005   0.6096   0.6231   0.6250   0.6303   0.6370   0.6475   0.6663
  0.6684   0.6733   0.6911   0.7412   0.7652   0.9440   1.0123   1.0434
  1.0554   1.0869   1.1183   1.1310   1.1508   1.2212   1.2780   1.3099
  1.3597   1.3615   1.3693   1.3924   1.4321   1.4478   1.4580   1.4907
  1.5347   1.5678   1.5693   1.5846   1.5895   1.6025   1.6097   1.6133
  1.6347   1.6455   1.6589   1.6647   1.6951   1.7144   1.7582   1.7810
  1.8081   1.8131   1.8559   1.8689   1.8700   1.9185   1.9348   1.9436
  1.9988   2.0200   2.0222   2.0327   2.0428   2.0670   2.1096   2.1167
  2.1528   2.1721   2.2817   2.3176   2.3364   2.3434   2.3805   2.4088
  2.4342   2.4428   2.5219   2.5761   2.6416   2.6939   2.9692
 --------------------------------------------------------------

          Ground-State Mulliken Net Atomic Charges

     Atom                 Charge (a.u.)
  ----------------------------------------
      1 C                     0.022899
      2 C                     0.038211
      3 C                    -0.084375
      4 C                    -0.084375
      5 C                     0.038211
      6 C                     0.022899
      7 H                     0.011376
      8 H                     0.018305
      9 H                     0.017084
     10 H                     0.010381
     11 H                    -0.033880
     12 H                    -0.033880
     13 H                     0.010381
     14 H                     0.017084
     15 H                     0.011376
     16 H                     0.018305
  ----------------------------------------
  Sum of atomic charges =     0.000000

 -----------------------------------------------------------------
                    Cartesian Multipole Moments
 -----------------------------------------------------------------
    Charge (ESU x 10^10)
                 0.0000
    Dipole Moment (Debye)
         X      -0.1306      Y      -0.0000      Z       0.0000
       Tot       0.1306
    Quadrupole Moments (Debye-Ang)
        XX     -38.1277     XY      -0.0000     YY     -39.1737
        XZ       0.0000     YZ       0.2211     ZZ     -38.4874
    Octopole Moments (Debye-Ang^2)
       XXX      -0.6460    XXY      -0.0000    XYY      -0.9850
       YYY       0.0000    XXZ       0.0000    XYZ      -0.3453
       YYZ       0.0000    XZZ      -3.1798    YZZ       0.0000
       ZZZ       0.0000
    Hexadecapole Moments (Debye-Ang^3)
      XXXX    -121.9559   XXXY       0.0000   XXYY     -56.4946
      XYYY       0.0000   YYYY    -236.0791   XXXZ       0.0000
      XXYZ      -0.8396   XYYZ       0.0000   YYYZ       1.2751
      XXZZ     -82.8634   XYZZ      -0.0000   YYZZ     -99.5154
      XZZZ       0.0000   YZZZ       1.7902   ZZZZ    -367.7576
 -----------------------------------------------------------------
 Calculating analytic gradient of the SCF energy
 Call libqints based aoints job 111
 Call libqints based aoints job 120
 Gradient of SCF Energy
            1           2           3           4           5           6
    1  -0.0001751   0.0001311  -0.0000329  -0.0000329   0.0001311  -0.0001751
    2  -0.0000726  -0.0000407  -0.0000070   0.0000070   0.0000407   0.0000726
    3   0.0000824   0.0000151  -0.0000801   0.0000801  -0.0000151  -0.0000824
            7           8           9          10          11          12
    1   0.0000207   0.0001341  -0.0000362  -0.0000711   0.0000294   0.0000294
    2  -0.0000106   0.0001291   0.0001228  -0.0000510   0.0000141  -0.0000141
    3  -0.0001017  -0.0000219   0.0000395  -0.0000254   0.0000250  -0.0000250
           13          14          15          16
    1  -0.0000711  -0.0000362   0.0000207   0.0001341
    2   0.0000510  -0.0001228   0.0000106  -0.0001291
    3   0.0000254  -0.0000395   0.0001017   0.0000219
 Max gradient component =       1.751E-04
 RMS gradient           =       7.727E-05
 Gradient time:  CPU 14.27 s  wall 3.57 s

     Step 4	:
        Energy is -234.2949509688
                            Maximum         Tolerance       Converged?
         Gradient           2.49037180e-04	3.00000000e-04	true
         Displacement       1.13936794e-02	1.20000000e-03	false
         Energy change      2.71700236e-06	1.00000000e-06	false


	OPTIMIZATION CYCLE:	5

 Scaling Magnitude of Eigenvalues
 	Minimum: -25.00000000	 Maximum: 25.00000000
 42 Hessian Eigenvalues to form next step
   0.00535032   0.10336736   0.11143357   0.11485111   0.11504675
   0.11813631   0.11843474   0.12529098   0.12625109   0.12907314
   0.12966859   0.12980852   0.12993102   0.13239198   0.13305966
   0.13441023   0.13526935   0.13823936   0.13895787   0.14113503
   0.14179349   0.14958129   0.15329368   0.17694230   0.19031370
   0.28195123   0.38436062   0.40749230   0.43745005   0.49640085
   0.49932222   0.49934048   0.49990302   0.50000000   0.50000000
   0.50000000   0.50000000   0.50000000   0.50000000   0.50000100
   0.50005901   0.50835775

 Minimum Search taking a RFO step
 Searching for Lambda that minimizes along all modes
	Value of Lambda  -0.00000316
	Norm of Stepsize  0.02022655
	RMS of Stepsize  0.00312102

	Performing Iterative Coordinate Back-Transformation

	  Starting from Previous Position

	  iter:	0	rms: 3.1263279391e-03	maxdev: 6.3562683335e-03
	  iter:	1	rms: 3.7951553631e-06	maxdev: 8.0482783765e-06
	  iter:	2	rms: 2.9538139406e-12	maxdev: 7.7299006111e-12	 Success!

	Finished Iterative Coordinate Back-Transformation
 Adding empirical dispersion correction 
 ----------------------------------------------------------------
 Doing -D3(BJ) with
 s6  =   1.00000e+00
 s8  =   7.87500e-01
 a1  =   4.28900e-01
 a2  =   4.44070e+00
 -D3 energy without 3body term =     -1.3477349314e-02 hartrees
 ----------------------------------------------------------------
             Standard Nuclear Orientation (Angstroms)
    I     Atom           X                Y                Z
 ----------------------------------------------------------------
    1      C       0.3311153474     0.8372510401     1.2174098345
    2      C       0.1978380384    -0.7076078148     1.3878732290
    3      C      -0.5753905301     0.7877193699    -0.0489351739
    4      C      -0.5753905301    -0.7877193699     0.0489351739
    5      C       0.1978380384     0.7076078148    -1.3878732290
    6      C       0.3311153474    -0.8372510401    -1.2174098345
    7      H       1.3593804423     1.2021603276     1.0146002311
    8      H      -0.0787788829     1.4285952229     2.0589942199
    9      H      -0.4257969199    -0.9838098888     2.2611048175
   10      H       1.1391099725    -1.2936821734     1.4347471323
   11      H      -1.4944474677     1.4039547625    -0.0194226596
   12      H      -1.4944474677    -1.4039547625     0.0194226596
   13      H       1.1391099725     1.2936821734    -1.4347471323
   14      H      -0.4257969199     0.9838098888    -2.2611048175
   15      H       1.3593804423    -1.2021603276    -1.0146002311
   16      H      -0.0787788829    -1.4285952229    -2.0589942199
 ----------------------------------------------------------------
 Nuclear Repulsion Energy =         242.15891788 hartrees
 There are       23 alpha and       23 beta electrons
 Applying Cartesian multipole field
    Component          Value
    ---------          -----
     (2,0,0)        1.00000E-11
     (0,2,0)        2.00000E-10
     (0,0,2)       -3.00000E-11
 Nucleus-field energy     = 2.0738565056e-08 hartrees
 Requested basis set is cc-pVDZ
 There are 66 shells and 134 basis functions
 A cutoff of  1.0D-12 yielded   2199 shell pairs
 There are      9119 function pairs (      9974 Cartesian)
 Smallest overlap matrix eigenvalue = 1.07E-03
 Guess MOs from SCF MO coefficient file

 -----------------------------------------------------------------------
  General SCF calculation program by
  Eric Jon Sundstrom, Paul Horn, Yuezhi Mao, Dmitri Zuev, Alec White,
  David Stuck, Shaama M.S., Shane Yost, Joonho Lee, David Small,
  Daniel Levine, Susi Lehtola, Hugh Burton, Evgeny Epifanovsky,
  Bang C. Huynh
 -----------------------------------------------------------------------
 Exchange:  PBE      Correlation:  PBE
 Using SG-1 standard quadrature grid
 Dispersion:   Grimme D3
 A restricted SCF calculation will be
 performed using DIIS
 SCF converges when DIIS error is below 1.0e-08
 ---------------------------------------
  Cycle       Energy         DIIS error
 ---------------------------------------
    1    -234.2949476648      3.77e-05  
    2    -234.2949534582      1.18e-06  
    3    -234.2949534589      1.08e-06  
    4    -234.2949534614      3.75e-07  
    5    -234.2949534617      7.32e-08  
    6    -234.2949534617      1.79e-08  
    7    -234.2949534617      4.29e-09  Convergence criterion met
 ---------------------------------------
 SCF time:   CPU 6.51s  wall 1.00s 
 SCF   energy in the final basis set =     -234.2949534617
 Total energy in the final basis set =     -234.2949534617

 --------------------------------------------------------------

                    Orbital Energies (a.u.)
 --------------------------------------------------------------

 Alpha MOs
 -- Occupied --
 -9.8937  -9.8936  -9.8911  -9.8911  -9.8906  -9.8905  -0.7887  -0.6729
 -0.6048  -0.5500  -0.5271  -0.4456  -0.4418  -0.4035  -0.3938  -0.3584
 -0.3311  -0.3002  -0.2962  -0.2824  -0.2551  -0.2383  -0.2292
 -- Virtual --
  0.0309   0.0461   0.0582   0.0696   0.0887   0.0900   0.1061   0.1150
  0.1155   0.1438   0.1603   0.1709   0.1805   0.1863   0.2206   0.3030
  0.3199   0.3365   0.3779   0.4006   0.4277   0.4471   0.4522   0.4753
  0.4759   0.4990   0.5002   0.5284   0.5326   0.5585   0.5627   0.5982
  0.6006   0.6097   0.6230   0.6251   0.6304   0.6370   0.6475   0.6664
  0.6683   0.6732   0.6912   0.7412   0.7652   0.9443   1.0116   1.0431
  1.0554   1.0872   1.1185   1.1308   1.1509   1.2218   1.2776   1.3100
  1.3596   1.3615   1.3694   1.3921   1.4321   1.4479   1.4581   1.4905
  1.5345   1.5675   1.5693   1.5846   1.5899   1.6025   1.6099   1.6134
  1.6343   1.6455   1.6588   1.6648   1.6951   1.7142   1.7581   1.7810
  1.8078   1.8140   1.8561   1.8690   1.8698   1.9188   1.9348   1.9432
  1.9990   2.0202   2.0221   2.0325   2.0429   2.0669   2.1098   2.1173
  2.1525   2.1720   2.2816   2.3180   2.3365   2.3432   2.3803   2.4091
  2.4343   2.4431   2.5214   2.5767   2.6411   2.6940   2.9702
 --------------------------------------------------------------

          Ground-State Mulliken Net Atomic Charges

     Atom                 Charge (a.u.)
  ----------------------------------------
      1 C                     0.022979
      2 C                     0.038158
      3 C                    -0.084339
      4 C                    -0.084339
      5 C                     0.038158
      6 C                     0.022979
      7 H                     0.011335
      8 H                     0.018299
      9 H                     0.017077
     10 H                     0.010406
     11 H                    -0.033915
     12 H                    -0.033915
     13 H                     0.010406
     14 H                     0.017077
     15 H                     0.011335
     16 H                     0.018299
  ----------------------------------------
  Sum of atomic charges =     0.000000

 -----------------------------------------------------------------
                    Cartesian Multipole Moments
 -----------------------------------------------------------------
    Charge (ESU x 10^10)
                -0.0000
    Dipole Moment (Debye)
         X      -0.1297      Y       0.0000      Z       0.0000
       Tot       0.1297
    Quadrupole Moments (Debye-Ang)
        XX     -38.1328     XY      -0.0000     YY     -39.1698
        XZ       0.0000     YZ       0.2204     ZZ     -38.4848
    Octopole Moments (Debye-Ang^2)
       XXX      -0.6175    XXY       0.0000    XYY      -0.9841
       YYY       0.0000    XXZ       0.0000    XYZ      -0.3404
       YYZ      -0.0000    XZZ      -3.1776    YZZ       0.0000
       ZZZ       0.0000
    Hexadecapole Moments (Debye-Ang^3)
      XXXX    -121.9418   XXXY       0.0000   XXYY     -56.4915
      XYYY       0.0000   YYYY    -236.1485   XXXZ       0.0000
      XXYZ      -0.8533   XYYZ       0.0000   YYYZ       1.1830
      XXZZ     -82.8720   XYZZ      -0.0000   YYZZ     -99.5415
      XZZZ       0.0000   YZZZ       1.6770   ZZZZ    -367.7305
 -----------------------------------------------------------------
 Calculating analytic gradient of the SCF energy
 Call libqints based aoints job 111
 Call libqints based aoints job 120
 Gradient of SCF Energy
            1           2           3           4           5           6
    1  -0.0001594   0.0000857  -0.0000933  -0.0000933   0.0000857  -0.0001594
    2  -0.0001158  -0.0000202  -0.0001023   0.0001023   0.0000202   0.0001158
    3   0.0001221   0.0001622  -0.0000663   0.0000663  -0.0001622  -0.0001221
            7           8           9          10          11          12
    1  -0.0000034   0.0001588  -0.0000075  -0.0000748   0.0000937   0.0000937
    2  -0.0000018   0.0001339   0.0001464  -0.0000517   0.0000932  -0.0000932
    3  -0.0000717  -0.0000168   0.0000622  -0.0000871   0.0000312  -0.0000312
           13          14          15          16
    1  -0.0000748  -0.0000075  -0.0000034   0.0001588
    2   0.0000517  -0.0001464   0.0000018  -0.0001339
    3   0.0000871  -0.0000622   0.0000717   0.0000168
 Max gradient component =       1.622E-04
 RMS gradient           =       9.566E-05
 Gradient time:  CPU 14.26 s  wall 3.57 s

     Step 5	:
        Energy is -234.2949534617
                            Maximum         Tolerance       Converged?
         Gradient           2.57564839e-04	3.00000000e-04	true
         Displacement       1.17792590e-02	1.20000000e-03	false
         Energy change      2.49293387e-06	1.00000000e-06	false


	OPTIMIZATION CYCLE:	6

 Scaling Magnitude of Eigenvalues
 	Minimum: -25.00000000	 Maximum: 25.00000000
 42 Hessian Eigenvalues to form next step
   0.00271475   0.09960569   0.10336736   0.11251481   0.11485111
   0.11621765   0.11813631   0.11843474   0.12567819   0.12966859
   0.12971759   0.12993102   0.13037573   0.13080510   0.13239198
   0.13441023   0.13600490   0.13823936   0.13918198   0.14179349
   0.14213667   0.14958129   0.15329368   0.17112855   0.19132327
   0.28344338   0.38436062   0.40680359   0.43745005   0.49870824
   0.49932222   0.49937829   0.49998756   0.50000000   0.50000000
   0.50000000   0.50000000   0.50000000   0.50000000   0.50000469
   0.50031985   0.52781045

 Minimum Search taking a RFO step
 Searching for Lambda that minimizes along all modes
	Value of Lambda  -0.00000594
	Norm of Stepsize  0.03948721
	RMS of Stepsize  0.00609301

	Performing Iterative Coordinate Back-Transformation

	  Starting from Previous Position

	  iter:	0	rms: 6.2628517264e-03	maxdev: 1.4125814469e-02
	  iter:	1	rms: 1.4737696929e-05	maxdev: 3.0052990358e-05
	  iter:	2	rms: 4.6527835572e-11	maxdev: 1.1819745923e-10	 Success!

	Finished Iterative Coordinate Back-Transformation
 Adding empirical dispersion correction 
 ----------------------------------------------------------------
 Doing -D3(BJ) with
 s6  =   1.00000e+00
 s8  =   7.87500e-01
 a1  =   4.28900e-01
 a2  =   4.44070e+00
 -D3 energy without 3body term =     -1.3474837360e-02 hartrees
 ----------------------------------------------------------------
             Standard Nuclear Orientation (Angstroms)
    I     Atom           X                Y                Z
 ----------------------------------------------------------------
    1      C       0.3286336268     0.8388226105     1.2183187442
    2      C       0.1999808838    -0.7064625629     1.3874495084
    3      C      -0.5756153864     0.7876827186    -0.0495648520
    4      C      -0.5756153864    -0.7876827186     0.0495648520
    5      C       0.1999808838     0.7064625629    -1.3874495084
    6      C       0.3286336268    -0.8388226105    -1.2183187442
    7      H       1.3559997034     1.2082749632     1.0194575126
    8      H      -0.0862449689     1.4272926164     2.0594925692
    9      H      -0.4197349190    -0.9862764630     2.2622275630
   10      H       1.1435368207    -1.2891899192     1.4301592876
   11      H      -1.4935257605     1.4057538425    -0.0223338227
   12      H      -1.4935257605    -1.4057538425     0.0223338227
   13      H       1.1435368207     1.2891899192    -1.4301592876
   14      H      -0.4197349190     0.9862764630    -2.2622275630
   15      H       1.3559997034    -1.2082749632    -1.0194575126
   16      H      -0.0862449689    -1.4272926164    -2.0594925692
 ----------------------------------------------------------------
 Nuclear Repulsion Energy =         242.13752617 hartrees
 There are       23 alpha and       23 beta electrons
 Applying Cartesian multipole field
    Component          Value
    ---------          -----
     (2,0,0)        1.00000E-11
     (0,2,0)        2.00000E-10
     (0,0,2)       -3.00000E-11
 Nucleus-field energy     = 2.0757190509e-08 hartrees
 Requested basis set is cc-pVDZ
 There are 66 shells and 134 basis functions
 A cutoff of  1.0D-12 yielded   2199 shell pairs
 There are      9119 function pairs (      9974 Cartesian)
 Smallest overlap matrix eigenvalue = 1.07E-03
 Guess MOs from SCF MO coefficient file

 -----------------------------------------------------------------------
  General SCF calculation program by
  Eric Jon Sundstrom, Paul Horn, Yuezhi Mao, Dmitri Zuev, Alec White,
  David Stuck, Shaama M.S., Shane Yost, Joonho Lee, David Small,
  Daniel Levine, Susi Lehtola, Hugh Burton, Evgeny Epifanovsky,
  Bang C. Huynh
 -----------------------------------------------------------------------
 Exchange:  PBE      Correlation:  PBE
 Using SG-1 standard quadrature grid
 Dispersion:   Grimme D3
 A restricted SCF calculation will be
 performed using DIIS
 SCF converges when DIIS error is below 1.0e-08
 ---------------------------------------
  Cycle       Energy         DIIS error
 ---------------------------------------
    1    -234.2949350394      7.46e-05  
    2    -234.2949578821      1.79e-06  
    3    -234.2949578867      1.24e-06  
    4    -234.2949578896      6.20e-07  
    5    -234.2949578904      1.31e-07  
    6    -234.2949578905      3.23e-08  
    7    -234.2949578905      1.08e-08  
    8    -234.2949578905      2.33e-09  Convergence criterion met
 ---------------------------------------
 SCF time:   CPU 6.84s  wall 2.00s 
 SCF   energy in the final basis set =     -234.2949578905
 Total energy in the final basis set =     -234.2949578905

 --------------------------------------------------------------

                    Orbital Energies (a.u.)
 --------------------------------------------------------------

 Alpha MOs
 -- Occupied --
 -9.8937  -9.8937  -9.8910  -9.8910  -9.8905  -9.8905  -0.7886  -0.6729
 -0.6048  -0.5500  -0.5270  -0.4456  -0.4418  -0.4035  -0.3938  -0.3584
 -0.3311  -0.3000  -0.2962  -0.2824  -0.2550  -0.2383  -0.2294
 -- Virtual --
  0.0308   0.0460   0.0583   0.0695   0.0888   0.0899   0.1060   0.1150
  0.1155   0.1437   0.1605   0.1711   0.1806   0.1866   0.2206   0.3037
  0.3201   0.3361   0.3778   0.4005   0.4278   0.4471   0.4526   0.4748
  0.4761   0.4991   0.5007   0.5279   0.5324   0.5585   0.5624   0.5982
  0.6007   0.6097   0.6230   0.6252   0.6305   0.6371   0.6476   0.6667
  0.6681   0.6730   0.6912   0.7411   0.7653   0.9451   1.0106   1.0430
  1.0552   1.0880   1.1186   1.1303   1.1510   1.2230   1.2766   1.3103
  1.3594   1.3613   1.3696   1.3918   1.4321   1.4481   1.4584   1.4900
  1.5339   1.5669   1.5696   1.5847   1.5907   1.6024   1.6106   1.6136
  1.6339   1.6455   1.6585   1.6652   1.6953   1.7134   1.7578   1.7811
  1.8072   1.8160   1.8563   1.8693   1.8696   1.9191   1.9347   1.9425
  1.9997   2.0206   2.0219   2.0320   2.0429   2.0671   2.1100   2.1182
  2.1522   2.1718   2.2815   2.3188   2.3367   2.3428   2.3801   2.4097
  2.4343   2.4437   2.5206   2.5780   2.6402   2.6942   2.9719
 --------------------------------------------------------------

          Ground-State Mulliken Net Atomic Charges

     Atom                 Charge (a.u.)
  ----------------------------------------
      1 C                     0.023248
      2 C                     0.038007
      3 C                    -0.084356
      4 C                    -0.084356
      5 C                     0.038007
      6 C                     0.023248
      7 H                     0.011255
      8 H                     0.018297
      9 H                     0.017062
     10 H                     0.010430
     11 H                    -0.033944
     12 H                    -0.033944
     13 H                     0.010430
     14 H                     0.017062
     15 H                     0.011255
     16 H                     0.018297
  ----------------------------------------
  Sum of atomic charges =     0.000000

 -----------------------------------------------------------------
                    Cartesian Multipole Moments
 -----------------------------------------------------------------
    Charge (ESU x 10^10)
                 0.0000
    Dipole Moment (Debye)
         X      -0.1288      Y      -0.0000      Z       0.0000
       Tot       0.1288
    Quadrupole Moments (Debye-Ang)
        XX     -38.1373     XY      -0.0000     YY     -39.1657
        XZ       0.0000     YZ       0.2168     ZZ     -38.4822
    Octopole Moments (Debye-Ang^2)
       XXX      -0.5835    XXY       0.0000    XYY      -0.9902
       YYY       0.0000    XXZ       0.0000    XYZ      -0.3332
       YYZ      -0.0000    XZZ      -3.1798    YZZ      -0.0000
       ZZZ       0.0000
    Hexadecapole Moments (Debye-Ang^3)
      XXXX    -121.8843   XXXY      -0.0000   XXYY     -56.4811
      XYYY      -0.0000   YYYY    -236.2939   XXXZ      -0.0000
      XXYZ      -0.8852   XYYZ      -0.0000   YYYZ       0.9783
      XXZZ     -82.8777   XYZZ      -0.0000   YYZZ     -99.6035
      XZZZ      -0.0000   YZZZ       1.4267   ZZZZ    -367.7832
 -----------------------------------------------------------------
 Calculating analytic gradient of the SCF energy
 Call libqints based aoints job 111
 Call libqints based aoints job 120
 Gradient of SCF Energy
            1           2           3           4           5           6
    1  -0.0000695  -0.0000210  -0.0001895  -0.0001895  -0.0000210  -0.0000695
    2  -0.0001537   0.0000070  -0.0002730   0.0002730  -0.0000070   0.0001537
    3   0.0001118   0.0003564  -0.0000484   0.0000484  -0.0003564  -0.0001118
            7           8           9          10          11          12
    1  -0.0000308   0.0001543   0.0000262  -0.0000498   0.0001801   0.0001801
    2   0.0000075   0.0001223   0.0001544  -0.0000277   0.0002211  -0.0002211
    3  -0.0000111  -0.0000152   0.0000648  -0.0001333   0.0000563  -0.0000563
           13          14          15          16
    1  -0.0000498   0.0000262  -0.0000308   0.0001543
    2   0.0000277  -0.0001544  -0.0000075  -0.0001223
    3   0.0001333  -0.0000648   0.0000111   0.0000152
 Max gradient component =       3.564E-04
 RMS gradient           =       1.378E-04
 Gradient time:  CPU 14.21 s  wall 3.56 s

     Step 6	:
        Energy is -234.2949578905
                            Maximum         Tolerance       Converged?
         Gradient           3.45384853e-04	3.00000000e-04	false
         Displacement       2.22194608e-02	1.20000000e-03	false
         Energy change      4.42873829e-06	1.00000000e-06	false


	OPTIMIZATION CYCLE:	7

 Scaling Magnitude of Eigenvalues
 	Minimum: -25.00000000	 Maximum: 25.00000000
 42 Hessian Eigenvalues to form next step
   0.00165324   0.07756355   0.10336736   0.11295109   0.11485111
   0.11761348   0.11813631   0.11843474   0.12598345   0.12966859
   0.12972608   0.12993102   0.13033250   0.13183165   0.13239198
   0.13441023   0.13650506   0.13823936   0.13918605   0.14179349
   0.14729455   0.14958129   0.15329368   0.16881962   0.19057404
   0.28450510   0.38436062   0.40675515   0.43745005   0.49890075
   0.49932222   0.49956296   0.49999798   0.50000000   0.50000000
   0.50000000   0.50000000   0.50000000   0.50000007   0.50000651
   0.50098956   0.53537880

 Minimum Search taking a RFO step
 Searching for Lambda that minimizes along all modes
	Value of Lambda  -0.00000717
	Norm of Stepsize  0.05174489
	RMS of Stepsize  0.00798441

	Performing Iterative Coordinate Back-Transformation

	  Starting from Previous Position

	  iter:	0	rms: 8.4201749559e-03	maxdev: 2.0080557603e-02
	  iter:	1	rms: 2.7014898152e-05	maxdev: 5.9672504548e-05
	  iter:	2	rms: 1.6511290627e-10	maxdev: 4.7192979032e-10	 Success!

	Finished Iterative Coordinate Back-Transformation
 Adding empirical dispersion correction 
 ----------------------------------------------------------------
 Doing -D3(BJ) with
 s6  =   1.00000e+00
 s8  =   7.87500e-01
 a1  =   4.28900e-01
 a2  =   4.44070e+00
 -D3 energy without 3body term =     -1.3471583508e-02 hartrees
 ----------------------------------------------------------------
             Standard Nuclear Orientation (Angstroms)
    I     Atom           X                Y                Z
 ----------------------------------------------------------------
    1      C       0.3254795001     0.8410653152     1.2195594956
    2      C       0.2031423304    -0.7049331420     1.3866870234
    3      C      -0.5754537976     0.7876298120    -0.0503513766
    4      C      -0.5754537976    -0.7876298120     0.0503513766
    5      C       0.2031423304     0.7049331420    -1.3866870234
    6      C       0.3254795001    -0.8410653152    -1.2195594956
    7      H       1.3515926888     1.2168142015     1.0263077714
    8      H      -0.0968528125     1.4252270788     2.0600578147
    9      H      -0.4120747205    -0.9896680661     2.2629616175
   10      H       1.1497423883    -1.2830533355     1.4251260119
   11      H      -1.4925455770     1.4071002233    -0.0261940423
   12      H      -1.4925455770    -1.4071002233     0.0261940423
   13      H       1.1497423883     1.2830533355    -1.4251260119
   14      H      -0.4120747205     0.9896680661    -2.2629616175
   15      H       1.3515926888    -1.2168142015    -1.0263077714
   16      H      -0.0968528125    -1.4252270788    -2.0600578147
 ----------------------------------------------------------------
 Nuclear Repulsion Energy =         242.11610453 hartrees
 There are       23 alpha and       23 beta electrons
 Applying Cartesian multipole field
    Component          Value
    ---------          -----
     (2,0,0)        1.00000E-11
     (0,2,0)        2.00000E-10
     (0,0,2)       -3.00000E-11
 Nucleus-field energy     = 2.0780640904e-08 hartrees
 Requested basis set is cc-pVDZ
 There are 66 shells and 134 basis functions
 A cutoff of  1.0D-12 yielded   2201 shell pairs
 There are      9137 function pairs (      9992 Cartesian)
 Smallest overlap matrix eigenvalue = 1.07E-03
 Guess MOs from SCF MO coefficient file

 -----------------------------------------------------------------------
  General SCF calculation program by
  Eric Jon Sundstrom, Paul Horn, Yuezhi Mao, Dmitri Zuev, Alec White,
  David Stuck, Shaama M.S., Shane Yost, Joonho Lee, David Small,
  Daniel Levine, Susi Lehtola, Hugh Burton, Evgeny Epifanovsky,
  Bang C. Huynh
[...]
 Smallest overlap matrix eigenvalue = 1.08E-03
 Guess MOs from SCF MO coefficient file

 -----------------------------------------------------------------------
  General SCF calculation program by
  Eric Jon Sundstrom, Paul Horn, Yuezhi Mao, Dmitri Zuev, Alec White,
  David Stuck, Shaama M.S., Shane Yost, Joonho Lee, David Small,
  Daniel Levine, Susi Lehtola, Hugh Burton, Evgeny Epifanovsky,
  Bang C. Huynh
 -----------------------------------------------------------------------
 Exchange:  PBE      Correlation:  PBE
 Using SG-1 standard quadrature grid
 Dispersion:   Grimme D3
 A restricted SCF calculation will be
 performed using DIIS
 SCF converges when DIIS error is below 1.0e-08
 ---------------------------------------
  Cycle       Energy         DIIS error
 ---------------------------------------
    1    -234.2949958584      1.50e-05  
    2    -234.2949967871      1.75e-06  
    3    -234.2949967815      2.38e-06  
    4    -234.2949967940      3.32e-07  
    5    -234.2949967942      6.09e-08  
    6    -234.2949967942      1.87e-08  
    7    -234.2949967942      8.41e-09  Convergence criterion met
 ---------------------------------------
 SCF time:   CPU 6.53s  wall 1.00s 
 SCF   energy in the final basis set =     -234.2949967942
 Total energy in the final basis set =     -234.2949967942

 --------------------------------------------------------------

                    Orbital Energies (a.u.)
 --------------------------------------------------------------

 Alpha MOs
 -- Occupied --
 -9.8935  -9.8935  -9.8908  -9.8908  -9.8905  -9.8905  -0.7880  -0.6728
 -0.6050  -0.5499  -0.5269  -0.4455  -0.4413  -0.4037  -0.3937  -0.3581
 -0.3315  -0.2994  -0.2968  -0.2825  -0.2553  -0.2378  -0.2288
 -- Virtual --
  0.0301   0.0462   0.0586   0.0689   0.0890   0.0895   0.1049   0.1140
  0.1156   0.1439   0.1619   0.1727   0.1812   0.1883   0.2212   0.3120
  0.3214   0.3310   0.3769   0.4000   0.4275   0.4484   0.4572   0.4712
  0.4759   0.5002   0.5032   0.5227   0.5314   0.5585   0.5622   0.5981
  0.6008   0.6096   0.6227   0.6268   0.6318   0.6372   0.6488   0.6643
  0.6688   0.6718   0.6892   0.7403   0.7669   0.9531   1.0100   1.0416
  1.0533   1.0941   1.1175   1.1253   1.1514   1.2357   1.2663   1.3141
  1.3594   1.3605   1.3689   1.3924   1.4319   1.4503   1.4584   1.4841
  1.5285   1.5658   1.5733   1.5852   1.5979   1.6037   1.6153   1.6175
  1.6324   1.6447   1.6553   1.6720   1.6979   1.7066   1.7538   1.7811
  1.8052   1.8359   1.8536   1.8661   1.8746   1.9209   1.9333   1.9338
  2.0040   2.0238   2.0262   2.0264   2.0411   2.0703   2.1106   2.1308
  2.1513   2.1718   2.2827   2.3251   2.3372   2.3403   2.3816   2.4132
  2.4292   2.4461   2.5173   2.5956   2.6335   2.6924   2.9839
 --------------------------------------------------------------

          Ground-State Mulliken Net Atomic Charges

     Atom                 Charge (a.u.)
  ----------------------------------------
      1 C                     0.028293
      2 C                     0.035268
      3 C                    -0.086113
      4 C                    -0.086113
      5 C                     0.035268
      6 C                     0.028293
      7 H                     0.010722
      8 H                     0.017973
      9 H                     0.017216
     10 H                     0.010313
     11 H                    -0.033670
     12 H                    -0.033670
     13 H                     0.010313
     14 H                     0.017216
     15 H                     0.010722
     16 H                     0.017973
  ----------------------------------------
  Sum of atomic charges =     0.000000

 -----------------------------------------------------------------
                    Cartesian Multipole Moments
 -----------------------------------------------------------------
    Charge (ESU x 10^10)
                -0.0000
    Dipole Moment (Debye)
         X      -0.1365      Y      -0.0000      Z       0.0000
       Tot       0.1365
    Quadrupole Moments (Debye-Ang)
        XX     -38.1155     XY      -0.0000     YY     -39.1967
        XZ      -0.0000     YZ       0.1450     ZZ     -38.4658
    Octopole Moments (Debye-Ang^2)
       XXX      -0.7221    XXY       0.0000    XYY      -1.0194
       YYY       0.0000    XXZ       0.0000    XYZ      -0.2768
       YYZ      -0.0000    XZZ      -3.2838    YZZ      -0.0000
       ZZZ       0.0000
    Hexadecapole Moments (Debye-Ang^3)
      XXXX    -121.2070   XXXY      -0.0000   XXYY     -56.4714
      XYYY       0.0000   YYYY    -237.9616   XXXZ       0.0000
      XXYZ      -1.4364   XYYZ      -0.0000   YYYZ      -1.7097
      XXZZ     -82.8409   XYZZ      -0.0000   YYZZ    -100.0650
      XZZZ      -0.0000   YZZZ      -1.5971   ZZZZ    -367.9793
 -----------------------------------------------------------------
 Calculating analytic gradient of the SCF energy
 Call libqints based aoints job 111
 Call libqints based aoints job 120
 Gradient of SCF Energy
            1           2           3           4           5           6
    1   0.0000105   0.0000650  -0.0000145  -0.0000145   0.0000650   0.0000105
    2  -0.0000521   0.0000909   0.0001795  -0.0001795  -0.0000909   0.0000521
    3   0.0001027  -0.0000322  -0.0001073   0.0001073   0.0000322  -0.0001027
            7           8           9          10          11          12
    1  -0.0000274   0.0000105   0.0000087  -0.0000463  -0.0000066  -0.0000066
    2   0.0000481   0.0000128   0.0001032  -0.0000390  -0.0000310   0.0000310
    3  -0.0000330  -0.0000189   0.0000546   0.0000088  -0.0000195   0.0000195
           13          14          15          16
    1  -0.0000463   0.0000087  -0.0000274   0.0000105
    2   0.0000390  -0.0001032  -0.0000481  -0.0000128
    3  -0.0000088  -0.0000546   0.0000330   0.0000189
 Max gradient component =       1.795E-04
 RMS gradient           =       6.273E-05
 Gradient time:  CPU 14.34 s  wall 3.59 s

     Step 14	:
        Energy is -234.2949967942
                            Maximum         Tolerance       Converged?
         Gradient           1.38388617e-04	3.00000000e-04	true
         Displacement       3.83743278e-03	1.20000000e-03	false
         Energy change      1.08052302e-06	1.00000000e-06	false


	OPTIMIZATION CYCLE:	15

 Scaling Magnitude of Eigenvalues
 	Minimum: -25.00000000	 Maximum: 25.00000000
 42 Hessian Eigenvalues to form next step
   0.00047762   0.01635838   0.03540232   0.09479103   0.10336736
   0.11389491   0.11485111   0.11813631   0.11843474   0.12654835
   0.12966859   0.12969741   0.12993102   0.13026075   0.13239198
   0.13374418   0.13441023   0.13784813   0.13823936   0.13928931
   0.14179349   0.14958129   0.15329368   0.15891203   0.18662433
   0.28454134   0.38436062   0.39757275   0.43745005   0.49526938
   0.49880931   0.49932222   0.49988683   0.49999357   0.50000000
   0.50000000   0.50000000   0.50000000   0.50000000   0.50000290
   0.50068438   0.51438899

 Minimum Search taking a RFO step
 Searching for Lambda that minimizes along all modes
	Value of Lambda  -0.00000065
	Norm of Stepsize  0.00586594
	RMS of Stepsize  0.00090513

	Performing Iterative Coordinate Back-Transformation

	  Starting from Previous Position

	  iter:	0	rms: 8.7938308857e-04	maxdev: 2.3050425053e-03
	  iter:	1	rms: 4.2297128819e-07	maxdev: 1.2278641341e-06	 Success!

	Finished Iterative Coordinate Back-Transformation
 Adding empirical dispersion correction 
 ----------------------------------------------------------------
 Doing -D3(BJ) with
 s6  =   1.00000e+00
 s8  =   7.87500e-01
 a1  =   4.28900e-01
 a2  =   4.44070e+00
 -D3 energy without 3body term =     -1.3455557595e-02 hartrees
 ----------------------------------------------------------------
             Standard Nuclear Orientation (Angstroms)
    I     Atom           X                Y                Z
 ----------------------------------------------------------------
    1      C       0.3001291523     0.8585701962     1.2306370095
    2      C       0.2306390851    -0.6931801696     1.3774482372
    3      C      -0.5730088688     0.7876892311    -0.0548316200
    4      C      -0.5730088688    -0.7876892311     0.0548316200
    5      C       0.2306390851     0.6931801696    -1.3774482372
    6      C       0.3001291523    -0.8585701962    -1.2306370095
    7      H       1.3135108054     1.2817714213     1.0708797852
    8      H      -0.1701993811     1.4089200972     2.0685402150
    9      H      -0.3503076201    -1.0145712353     2.2642799921
   10      H       1.1974980763    -1.2378380049     1.3840411892
   11      H      -1.4952312490     1.3998025756    -0.0623009595
   12      H      -1.4952312490    -1.3998025756     0.0623009595
   13      H       1.1974980763     1.2378380049    -1.3840411892
   14      H      -0.3503076201     1.0145712353    -2.2642799921
   15      H       1.3135108054    -1.2817714213    -1.0708797852
   16      H      -0.1701993811    -1.4089200972    -2.0685402150
 ----------------------------------------------------------------
 Nuclear Repulsion Energy =         242.00496935 hartrees
 There are       23 alpha and       23 beta electrons
 Applying Cartesian multipole field
    Component          Value
    ---------          -----
     (2,0,0)        1.00000E-11
     (0,2,0)        2.00000E-10
     (0,0,2)       -3.00000E-11
 Nucleus-field energy     = 2.0929682946e-08 hartrees
 Requested basis set is cc-pVDZ
 There are 66 shells and 134 basis functions
 A cutoff of  1.0D-12 yielded   2201 shell pairs
 There are      9137 function pairs (      9992 Cartesian)
 Smallest overlap matrix eigenvalue = 1.08E-03
 Guess MOs from SCF MO coefficient file

 -----------------------------------------------------------------------
  General SCF calculation program by
  Eric Jon Sundstrom, Paul Horn, Yuezhi Mao, Dmitri Zuev, Alec White,
  David Stuck, Shaama M.S., Shane Yost, Joonho Lee, David Small,
  Daniel Levine, Susi Lehtola, Hugh Burton, Evgeny Epifanovsky,
  Bang C. Huynh
 -----------------------------------------------------------------------
 Exchange:  PBE      Correlation:  PBE
 Using SG-1 standard quadrature grid
 Dispersion:   Grimme D3
 A restricted SCF calculation will be
 performed using DIIS
 SCF converges when DIIS error is below 1.0e-08
 ---------------------------------------
  Cycle       Energy         DIIS error
 ---------------------------------------
    1    -234.2949966816      1.13e-05  
    2    -234.2949972086      9.85e-07  
    3    -234.2949972069      1.32e-06  
    4    -234.2949972108      2.10e-07  
    5    -234.2949972109      3.52e-08  
    6    -234.2949972109      1.46e-08  
    7    -234.2949972109      4.66e-09  Convergence criterion met
 ---------------------------------------
 SCF time:   CPU 6.54s  wall 2.00s 
 SCF   energy in the final basis set =     -234.2949972109
 Total energy in the final basis set =     -234.2949972109

 --------------------------------------------------------------

                    Orbital Energies (a.u.)
 --------------------------------------------------------------

 Alpha MOs
 -- Occupied --
 -9.8935  -9.8935  -9.8908  -9.8908  -9.8905  -9.8905  -0.7880  -0.6728
 -0.6050  -0.5499  -0.5269  -0.4455  -0.4413  -0.4037  -0.3937  -0.3581
 -0.3315  -0.2994  -0.2968  -0.2825  -0.2553  -0.2378  -0.2288
 -- Virtual --
  0.0302   0.0462   0.0586   0.0689   0.0890   0.0895   0.1049   0.1140
  0.1156   0.1439   0.1619   0.1727   0.1813   0.1884   0.2212   0.3121
  0.3214   0.3309   0.3769   0.4000   0.4275   0.4485   0.4572   0.4711
  0.4759   0.5001   0.5032   0.5227   0.5314   0.5585   0.5622   0.5981
  0.6009   0.6096   0.6227   0.6269   0.6319   0.6372   0.6488   0.6642
  0.6688   0.6717   0.6891   0.7403   0.7669   0.9531   1.0101   1.0417
  1.0533   1.0942   1.1174   1.1252   1.1514   1.2357   1.2661   1.3141
  1.3593   1.3605   1.3688   1.3925   1.4318   1.4503   1.4586   1.4842
  1.5286   1.5658   1.5732   1.5852   1.5978   1.6038   1.6153   1.6177
  1.6324   1.6447   1.6552   1.6718   1.6979   1.7065   1.7539   1.7812
  1.8053   1.8361   1.8536   1.8661   1.8747   1.9209   1.9333   1.9338
  2.0041   2.0237   2.0262   2.0263   2.0411   2.0702   2.1107   2.1311
  2.1513   2.1718   2.2827   2.3251   2.3371   2.3403   2.3816   2.4132
  2.4292   2.4462   2.5171   2.5957   2.6333   2.6924   2.9842
 --------------------------------------------------------------

          Ground-State Mulliken Net Atomic Charges

     Atom                 Charge (a.u.)
  ----------------------------------------
      1 C                     0.028350
      2 C                     0.035218
      3 C                    -0.086097
      4 C                    -0.086097
      5 C                     0.035218
      6 C                     0.028350
      7 H                     0.010714
      8 H                     0.017963
      9 H                     0.017218
     10 H                     0.010313
     11 H                    -0.033678
     12 H                    -0.033678
     13 H                     0.010313
     14 H                     0.017218
     15 H                     0.010714
     16 H                     0.017963
  ----------------------------------------
  Sum of atomic charges =     0.000000

 -----------------------------------------------------------------
                    Cartesian Multipole Moments
 -----------------------------------------------------------------
    Charge (ESU x 10^10)
                -0.0000
    Dipole Moment (Debye)
         X      -0.1361      Y      -0.0000      Z       0.0000
       Tot       0.1361
    Quadrupole Moments (Debye-Ang)
        XX     -38.1145     XY       0.0000     YY     -39.1960
        XZ       0.0000     YZ       0.1437     ZZ     -38.4678
    Octopole Moments (Debye-Ang^2)
       XXX      -0.7084    XXY       0.0000    XYY      -1.0229
       YYY       0.0000    XXZ       0.0000    XYZ      -0.2722
       YYZ       0.0000    XZZ      -3.2798    YZZ      -0.0000
       ZZZ       0.0000
    Hexadecapole Moments (Debye-Ang^3)
      XXXX    -121.1974   XXXY      -0.0000   XXYY     -56.4734
      XYYY       0.0000   YYYY    -237.9687   XXXZ       0.0000
      XXYZ      -1.4436   XYYZ      -0.0000   YYYZ      -1.7322
      XXZZ     -82.8386   XYZZ      -0.0000   YYZZ    -100.0615
      XZZZ       0.0000   YZZZ      -1.6323   ZZZZ    -368.0190
 -----------------------------------------------------------------
 Calculating analytic gradient of the SCF energy
 Call libqints based aoints job 111
 Call libqints based aoints job 120
 Gradient of SCF Energy
            1           2           3           4           5           6
    1  -0.0000028   0.0000241  -0.0000179  -0.0000179   0.0000241  -0.0000028
    2  -0.0000741   0.0000915   0.0001247  -0.0001247  -0.0000915   0.0000741
    3   0.0000363   0.0000368  -0.0000009   0.0000009  -0.0000368  -0.0000363
            7           8           9          10          11          12
    1  -0.0000132   0.0000179   0.0000046  -0.0000160   0.0000034   0.0000034
    2   0.0000400   0.0000373   0.0000680  -0.0000007  -0.0000055   0.0000055
    3  -0.0000197  -0.0000227   0.0000273   0.0000057  -0.0000416   0.0000416
           13          14          15          16
    1  -0.0000160   0.0000046  -0.0000132   0.0000179
    2   0.0000007  -0.0000680  -0.0000400  -0.0000373
    3  -0.0000057  -0.0000273   0.0000197   0.0000227
 Max gradient component =       1.247E-04
 RMS gradient           =       4.322E-05
 Gradient time:  CPU 14.33 s  wall 3.59 s

     Step 15	:
        Energy is -234.2949972109
                            Maximum         Tolerance       Converged?
         Gradient           8.10130214e-05	3.00000000e-04	true
         Displacement       2.40913717e-03	1.20000000e-03	false
         Energy change      4.16630968e-07	1.00000000e-06	true

	 Optimization Converged in 15 cycles

 *****************************************************
             End of BFGS Algorithm
 *****************************************************
		----------------------------------
		   Verification of Optimization
		----------------------------------

 Eigenvalues of Hessian in Optimization Verification
   0.00047042   0.01686806   0.03530501   0.07216645   0.10336736
   0.11408718   0.11485111   0.11813631   0.11843474   0.12677534
   0.12966859   0.12972046   0.12993102   0.13015763   0.13239198
   0.13441023   0.13447373   0.13787914   0.13823936   0.13914537
   0.14179349   0.14958129   0.15207091   0.15329368   0.18579059
   0.28281184   0.38436062   0.39727080   0.43745005   0.49497743
   0.49827569   0.49932222   0.49954542   0.49992919   0.49999706
   0.50000000   0.50000000   0.50000000   0.50000000   0.50000000
   0.50004679   0.50329269

 Found a minimum
		---------------------------------
		       End of Verification
		---------------------------------

 Final energy is -234.294997210873

	******************************
	**  OPTIMIZATION CONVERGED  **
	******************************
 Adding empirical dispersion correction 
 ----------------------------------------------------------------
 Doing -D3(BJ) with
 s6  =   1.00000
 s8  =   0.78750
 a1  =   0.42890
 a2  =   4.44070
 -D3 energy without 3body term =     -0.0134555576 hartrees
 ----------------------------------------------------------------
             Standard Nuclear Orientation (Angstroms)
    I     Atom           X                Y                Z
 ----------------------------------------------------------------
    1      C       0.3001291523     0.8585701962     1.2306370095
    2      C       0.2306390851    -0.6931801696     1.3774482372
    3      C      -0.5730088688     0.7876892311    -0.0548316200
    4      C      -0.5730088688    -0.7876892311     0.0548316200
    5      C       0.2306390851     0.6931801696    -1.3774482372
    6      C       0.3001291523    -0.8585701962    -1.2306370095
    7      H       1.3135108054     1.2817714213     1.0708797852
    8      H      -0.1701993811     1.4089200972     2.0685402150
    9      H      -0.3503076201    -1.0145712353     2.2642799921
   10      H       1.1974980763    -1.2378380049     1.3840411892
   11      H      -1.4952312490     1.3998025756    -0.0623009595
   12      H      -1.4952312490    -1.3998025756     0.0623009595
   13      H       1.1974980763     1.2378380049    -1.3840411892
   14      H      -0.3503076201     1.0145712353    -2.2642799921
   15      H       1.3135108054    -1.2817714213    -1.0708797852
   16      H      -0.1701993811    -1.4089200972    -2.0685402150
 ----------------------------------------------------------------
 Nuclear Repulsion Energy =         242.00496935 hartrees
 There are       23 alpha and       23 beta electrons

Z-matrix Print:
$molecule
0 1
C 
H  1 1.106902
C  1 1.550515 2 117.373189
H  3 1.107819 1 113.164354 2 -16.302808 0
H  3 1.109735 1 115.260271 2 108.756092 0
C  1 1.555578 2 116.617027 3 141.664988 0
H  6 1.107328 1 114.175892 2 8.284836 0
H  6 1.109759 1 114.265487 2 -116.590921 0
C  3 1.560228 1 90.197173 2 -131.304626 0
H  9 1.107328 3 113.840237 1 119.775238 0
H  9 1.109759 3 115.689214 1 -114.398755 0
C  9 1.555578 3 90.426283 1 2.964649 0
H  12 1.106902 9 116.617027 3 124.797683 0
C  12 1.550515 9 114.629738 3 -92.498593 0
H  14 1.107819 12 113.164354 9 -158.711553 0
H  14 1.109735 12 115.260271 9 -33.652653 0
$end

 -----------------------------------------------------------------------
                  END OF GEOMETRY OPTIMIZER USING LIBOPT3               
 -----------------------------------------------------------------------
 Total job time:  85.66s(wall), 341.38s(cpu) 
 Wed Aug  2 11:43:23 2023

        *************************************************************
        *                                                           *
        *  Thank you very much for using Q-Chem.  Have a nice day.  *
        *                                                           *
        *************************************************************


