                  Welcome to Q-Chem
     A Quantum Leap Into The Future Of Chemistry


 Q-Chem 6.0 (devel), Q-Chem, Inc., Pleasanton, CA (2022)

 E. Epifanovsky,  A. T. B. Gilbert,  Xintian Feng,  Joonho Lee,  Yuezhi Mao,  
 N. Mardirossian,  P. Pokhilko,  A. White,  M. Wormit,  M. P. Coons,  
 A. L. Dempwolff,  Zhengting Gan,  D. Hait,  P. R. Horn,  L. D. Jacobson,  
 I. Kaliman,  J. Kussmann,  A. W. Lange,  Ka Un Lao,  D. S. Levine,  Jie Liu,  
 S. C. McKenzie,  A. F. Morrison,  K. Nanda,  F. Plasser,  D. R. Rehn,  
 M. L. Vidal,  Zhi-Qiang You,  Ying Zhu,  B. Alam,  B. Albrecht,  
 A. Aldossary,  E. Alguire,  J. H. Andersen,  V. Athavale,  D. Barton,  
 K. Begam,  A. Behn,  N. Bellonzi,  Y. A. Bernard,  E. J. Berquist,  
 H. Burton,  A. Carreras,  K. Carter-Fenk,  Romit Chakraborty,  
 Chandrima Chakravarty,  Junhan Chen,  A. D. Chien,  K. D. Closser,  
 V. Cofer-Shabica,  L. Cunha,  S. Dasgupta,  Jia Deng,  M. de Wergifosse,  
 M. Diedenhofen,  Hainam Do,  S. Ehlert,  Po-Tung Fang,  S. Fatehi,  
 Qingguo Feng,  T. Friedhoff,  B. Ganoe,  J. Gayvert,  Qinghui Ge,  
 G. Gidofalvi,  M. Goldey,  J. Gomes,  C. Gonzalez-Espinoza,  S. Gulania,  
 A. Gunina,  J. A. Gyamfi,  M. W. D. Hanson-Heine,  P. H. P. Harbach,  
 A. W. Hauser,  M. F. Herbst,  M. Hernandez Vera,  M. Hodecker,  
 Z. C. Holden,  S. Houck,  Xunkun Huang,  Kerwin Hui,  B. C. Huynh,  
 K. Ikeda,  M. Ivanov,  Hyunjun Ji,  Zuxin Jin,  Hanjie Jiang,  B. Kaduk,  
 S. Kaehler,  R. Kang,  K. Khistyaev,  Jaehoon Kim,  Yongbin Kim,  
 P. Klunzinger,  Z. Koczor-Benda,  Joong Hoon Koh,  D. Kosenkov,  
 Saikiran Kotaru,  L. Koulias,  T. Kowalczyk,  C. M. Krauter,  K. Kue,  
 A. Kunitsa,  T. Kus,  A. Landau,  K. V. Lawler,  D. Lefrancois,  S. Lehtola,  
 Rain Li,  Shaozhi Li,  Yi-Pei Li,  Jiashu Liang,  M. Liebenthal,  
 Hung-Hsuan Lin,  You-Sheng Lin,  Fenglai Liu,  Kuan-Yu Liu,  
 M. Loipersberger,  A. Luenser,  C. Malbon,  A. Manjanath,  P. Manohar,  
 E. Mansoor,  S. F. Manzer,  Shan-Ping Mao,  A. V. Marenich,  T. Markovich,  
 S. Mason,  F. Matz,  S. A. Maurer,  P. F. McLaughlin,  M. F. S. J. Menger,  
 J.-M. Mewes,  S. A. Mewes,  P. Morgante,  Mohammad Mostafanejad,  
 J. W. Mullinax,  K. J. Oosterbaan,  G. Paran,  V. Parravicini,  
 Alexander C. Paul,  Suranjan K. Paul,  F. Pavosevic,  Zheng Pei,  S. Prager,  
 E. I. Proynov,  E. Ramos,  B. Rana,  A. E. Rask,  A. Rettig,  R. M. Richard,  
 F. Rob,  E. Rossomme,  T. Scheele,  M. Scheurer,  M. Schneider,  
 P. E. Schneider,  N. Sergueev,  S. M. Sharada,  Hengyuan Shen,  
 W. Skomorowski,  D. W. Small,  C. J. Stein,  Yingli Su,  Yu-Chuan Su,  
 E. J. Sundstrom,  Zhen Tao,  J. Thirman,  Hung-Yi Tsai,  T. Tsuchimochi,  
 N. M. Tubman,  C. Utku,  S. P. Veccham,  O. Vydrov,  J. Wenzel,  
 Jonathan Wong,  J. Witte,  A. Yamada,  Chou-Hsun Yang,  Kun Yao,  
 S. Yeganeh,  S. R. Yost,  A. Zech,  F. Zeller,  Igor Ying Zhang,  
 Xing Zhang,  Yu Zhang,  D. Zuev,  A. Aspuru-Guzik,  A. T. Bell,  
 N. A. Besley,  K. B. Bravaya,  B. R. Brooks,  D. Casanova,  Jeng-Da Chai,  
 Hsing-Ta Chen,  S. Coriani,  C. J. Cramer,  A. E. DePrince, III,  
 R. A. DiStasio Jr.,  A. Dreuw,  B. D. Dunietz,  T. R. Furlani,  
 W. A. Goddard III,  S. Grimme,  S. Hammes-Schiffer,  T. Head-Gordon,  
 W. J. Hehre,  Chao-Ping Hsu,  T.-C. Jagau,  Yousung Jung,  A. Klamt,  
 Jing Kong,  D. S. Lambrecht,  Xiangyuan Li,  WanZhen Liang,  N. J. Mayhall,  
 C. W. McCurdy,  J. B. Neaton,  T. Neudecker,  C. Ochsenfeld,  
 J. A. Parkhill,  R. Peverati,  V. A. Rassolov,  Haisheng Ren,  Yihan Shao,  
 L. V. Slipchenko,  R. P. Steele,  J. E. Subotnik,  A. J. W. Thom,  
 A. Tkatchenko,  D. G. Truhlar,  T. Van Voorhis,  Fan Wang,  
 T. A. Wesolowski,  K. B. Whaley,  H. L. Woodcock III,  P. M. Zimmerman,  
 S. Faraji,  P. M. W. Gill,  M. Head-Gordon,  J. M. Herbert,  A. I. Krylov

 Contributors to earlier versions of Q-Chem not listed above: 
 R. D. Adamson,  B. Austin,  R. Baer,  J. Baker,  G. J. O. Beran,  
 K. Brandhorst,  S. T. Brown,  E. F. C. Byrd,  Arup K. Chakraborty,  
 G. K. L. Chan,  Chun-Min Chang,  Yunqing Chen,  C.-L. Cheng,  
 Siu Hung Chien,  D. M. Chipman,  D. L. Crittenden,  H. Dachsel,  
 R. J. Doerksen,  A. D. Dutoi,  R. G. Edgar,  J. Fosso-Tande,  
 L. Fusti-Molnar,  D. Ghosh,  A. Ghysels,  A. Golubeva-Zadorozhnaya,  
 J. Gonthier,  M. S. Gordon,  S. R. Gwaltney,  G. Hawkins,  J. E. Herr,  
 A. Heyden,  S. Hirata,  E. G. Hohenstein,  G. Kedziora,  F. J. Keil,  
 C. Kelley,  Jihan Kim,  R. A. King,  R. Z. Khaliullin,  P. P. Korambath,  
 W. Kurlancheek,  A. Laurent,  A. M. Lee,  M. S. Lee,  S. V. Levchenko,  
 Ching Yeh Lin,  D. Liotard,  E. Livshits,  R. C. Lochan,  I. Lotan,  
 L. A. Martinez-Martinez,  P. E. Maslen,  N. Nair,  D. P. O'Neill,  
 D. Neuhauser,  E. Neuscamman,  C. M. Oana,  R. Olivares-Amaya,  R. Olson,  
 T. M. Perrine,  B. Peters,  P. A. Pieniazek,  A. Prociuk,  Y. M. Rhee,  
 J. Ritchie,  M. A. Rohrdanz,  E. Rosta,  N. J. Russ,  H. F. Schaefer III,  
 M. W. Schmidt,  N. E. Schultz,  S. Sharma,  N. Shenvi,  C. D. Sherrill,  
 A. C. Simmonett,  A. Sodt,  T. Stein,  D. Stuck,  K. S. Thanthiriwatte,  
 V. Vanovschi,  L. Vogt,  Tao Wang,  A. Warshel,  M. A. Watson,  
 C. F. Williams,  Q. Wu,  X. Xu,  Jun Yang,  W. Zhang,  Yan Zhao

   Please cite Q-Chem as follows:
  "Software for the frontiers of quantum chemistry:
   An overview of developments in the Q-Chem 5 package"
   J. Chem. Phys. 155, 084801 (2021)
   https://doi.org/10.1063/5.0055522 (open access)

 Q-Chem 6.0.0 for Intel X86 EM64T Linux

 Parts of Q-Chem use Armadillo 9.900.5 (Nocturnal Misbehaviour).
 http://arma.sourceforge.net/

 Q-Chem begins on Tue Jul 11 08:36:29 2023  

 Host: 
0

     Scratch files written to /mnt/scratch/hwang/qchem982792//
 Processing $rem in /opt/qchem-6.0.0/config/preferences:
 Processing $rem in /home/hwang/.qchemrc:

 Checking the input file for inconsistencies... 	...done.

--------------------------------------------------------------
User input:
--------------------------------------------------------------
$comment
   ASE generated input file
$end

$rem
   DISTORT                     TRUE
   METHOD                      PBE
   BASIS                       CC-PVDZ
   JOBTYPE                     OPT
   DFT_D                       D3_BJ
   GEOM_OPT_MAX_CYCLES         150
   MAX_SCF_CYCLES              150
   SYM_IGNORE                  TRUE
$end

$molecule
   0 1
   C  1.029274  0.819001  -0.771810
   C  1.083242  0.794425  0.787302
   C  -0.483521  0.447195  -0.736554
   C  -0.373254  0.271741  0.828352
   C  -0.784716  -1.064328  -0.885289
   C  -0.518909  -1.267921  0.637830
   H  1.663799  0.062194  -1.277421
   H  1.253141  1.805922  -1.221068
   H  1.184783  1.809017  1.220954
   H  1.847699  0.140142  1.255755
   H  -1.174651  1.162275  -1.222715
   H  -1.070565  0.745722  1.545579
   H  -0.134050  -1.623786  -1.589295
   H  -1.839858  -1.261156  -1.160504
   H  0.403306  -1.834345  0.881863
   H  -1.359140  -1.727998  1.192909
$end

$distort
   model                       xhcff
   pressure                    50000
   npoints_heavy               302
   npoints_hydrogen            302
   scaling                     1.0
$end

--------------------------------------------------------------
 Adding empirical dispersion correction 
 ----------------------------------------------------------------
 Doing -D3(BJ) with
 s6  =   1.00000
 s8  =   0.78750
 a1  =   0.42890
 a2  =   4.44070
 -D3 energy without 3body term =     -0.0134706355 hartrees
 ----------------------------------------------------------------
             Standard Nuclear Orientation (Angstroms)
    I     Atom           X                Y                Z
 ----------------------------------------------------------------
    1      C       1.0292740000     0.8190010000    -0.7718100000
    2      C       1.0832420000     0.7944250000     0.7873020000
    3      C      -0.4835210000     0.4471950000    -0.7365540000
    4      C      -0.3732540000     0.2717410000     0.8283520000
    5      C      -0.7847160000    -1.0643280000    -0.8852890000
    6      C      -0.5189090000    -1.2679210000     0.6378300000
    7      H       1.6637990000     0.0621940000    -1.2774210000
    8      H       1.2531410000     1.8059220000    -1.2210680000
    9      H       1.1847830000     1.8090170000     1.2209540000
   10      H       1.8476990000     0.1401420000     1.2557550000
   11      H      -1.1746510000     1.1622750000    -1.2227150000
   12      H      -1.0705650000     0.7457220000     1.5455790000
   13      H      -0.1340500000    -1.6237860000    -1.5892950000
   14      H      -1.8398580000    -1.2611560000    -1.1605040000
   15      H       0.4033060000    -1.8343450000     0.8818630000
   16      H      -1.3591400000    -1.7279980000     1.1929090000
 ----------------------------------------------------------------
 Nuclear Repulsion Energy =         242.10633115 hartrees
 There are       23 alpha and       23 beta electrons
 Requested basis set is cc-pVDZ
 There are 66 shells and 134 basis functions

 Total QAlloc Memory Limit   2000 MB
 Mega-Array Size       188 MB
 MEM_STATIC part       192 MB

 -----------------------------------------------------------------------
                STARTING GEOMETRY OPTIMIZER USING LIBOPT3
                by Peter F. McLaughlin, Yu Zhang, Evgeny Epifanovsky
 -----------------------------------------------------------------------

              Initial Energy and Gradient Calculation
  Checking Topology for Ill-Behaving Coordinates
  Done Checking Topology
 Adding empirical dispersion correction 
 ----------------------------------------------------------------
 Doing -D3(BJ) with
 s6  =   1.00000
 s8  =   0.78750
 a1  =   0.42890
 a2  =   4.44070
 -D3 energy without 3body term =     -0.0134706355 hartrees
 ----------------------------------------------------------------
             Standard Nuclear Orientation (Angstroms)
    I     Atom           X                Y                Z
 ----------------------------------------------------------------
    1      C       1.0292740000     0.8190010000    -0.7718100000
    2      C       1.0832420000     0.7944250000     0.7873020000
    3      C      -0.4835210000     0.4471950000    -0.7365540000
    4      C      -0.3732540000     0.2717410000     0.8283520000
    5      C      -0.7847160000    -1.0643280000    -0.8852890000
    6      C      -0.5189090000    -1.2679210000     0.6378300000
    7      H       1.6637990000     0.0621940000    -1.2774210000
    8      H       1.2531410000     1.8059220000    -1.2210680000
    9      H       1.1847830000     1.8090170000     1.2209540000
   10      H       1.8476990000     0.1401420000     1.2557550000
   11      H      -1.1746510000     1.1622750000    -1.2227150000
   12      H      -1.0705650000     0.7457220000     1.5455790000
   13      H      -0.1340500000    -1.6237860000    -1.5892950000
   14      H      -1.8398580000    -1.2611560000    -1.1605040000
   15      H       0.4033060000    -1.8343450000     0.8818630000
   16      H      -1.3591400000    -1.7279980000     1.1929090000
 ----------------------------------------------------------------
 Nuclear Repulsion Energy =         242.10633115 hartrees
 There are       23 alpha and       23 beta electrons
 Requested basis set is cc-pVDZ
 There are 66 shells and 134 basis functions
 A cutoff of  1.0D-12 yielded   2199 shell pairs
 There are      9119 function pairs (      9974 Cartesian)
 Smallest overlap matrix eigenvalue = 1.08E-03

 Scale SEOQF with 1.000000e-01/1.000000e-01/1.000000e-01

 Standard Electronic Orientation quadrupole field applied
 Nucleus-field energy     =     0.0000000005 hartrees
 Guess from superposition of atomic densities
 Warning:  Energy on first SCF cycle will be non-variational
 SAD guess density has 46.000000 electrons

 -----------------------------------------------------------------------
  General SCF calculation program by
  Eric Jon Sundstrom, Paul Horn, Yuezhi Mao, Dmitri Zuev, Alec White,
  David Stuck, Shaama M.S., Shane Yost, Joonho Lee, David Small,
  Daniel Levine, Susi Lehtola, Hugh Burton, Evgeny Epifanovsky,
  Bang C. Huynh
 -----------------------------------------------------------------------
 Exchange:  PBE      Correlation:  PBE
 Using SG-1 standard quadrature grid
 Dispersion:   Grimme D3
 using 4 threads for integral computing
 -------------------------------------------------------
 OpenMP Integral computing Module                
 Release: version 1.0, May 2013, Q-Chem Inc. Pittsburgh 
 -------------------------------------------------------
 A restricted SCF calculation will be
 performed using DIIS
 SCF converges when DIIS error is below 1.0e-08
 ---------------------------------------
  Cycle       Energy         DIIS error
 ---------------------------------------
    1    -235.1497728600      6.00e-02  
    2    -234.0889063788      8.76e-03  
    3    -233.7686355378      1.46e-02  
    4    -234.2917067275      1.19e-03  
    5    -234.2943344096      4.66e-04  
    6    -234.2947577768      1.63e-04  
    7    -234.2948166735      2.57e-05  
    8    -234.2948184146      5.35e-06  
    9    -234.2948184885      1.24e-06  
   10    -234.2948184914      5.74e-07  
   11    -234.2948184922      8.91e-08  
   12    -234.2948184922      8.57e-09  Convergence criterion met
 ---------------------------------------
 SCF time:   CPU 16.71s  wall 4.00s 
 SCF   energy in the final basis set =     -234.2948184922
 Total energy in the final basis set =     -234.2948184922

 --------------------------------------------------------------

                    Orbital Energies (a.u.)
 --------------------------------------------------------------

 Alpha MOs
 -- Occupied --
 -9.8936  -9.8936  -9.8911  -9.8910  -9.8906  -9.8906  -0.7885  -0.6731
 -0.6045  -0.5501  -0.5272  -0.4455  -0.4417  -0.4037  -0.3933  -0.3586
 -0.3308  -0.3003  -0.2966  -0.2823  -0.2551  -0.2386  -0.2287
 -- Virtual --
  0.0308   0.0464   0.0582   0.0695   0.0886   0.0897   0.1066   0.1150
  0.1154   0.1439   0.1605   0.1704   0.1805   0.1859   0.2205   0.3023
  0.3199   0.3368   0.3783   0.4007   0.4273   0.4470   0.4517   0.4755
  0.4762   0.4985   0.4998   0.5285   0.5329   0.5588   0.5631   0.5983
  0.6001   0.6093   0.6230   0.6248   0.6303   0.6367   0.6476   0.6661
  0.6687   0.6729   0.6909   0.7417   0.7653   0.9436   1.0140   1.0445
  1.0541   1.0866   1.1158   1.1311   1.1512   1.2208   1.2789   1.3103
  1.3598   1.3612   1.3690   1.3935   1.4311   1.4467   1.4584   1.4913
  1.5346   1.5684   1.5694   1.5845   1.5875   1.6020   1.6099   1.6133
  1.6362   1.6455   1.6585   1.6648   1.6949   1.7124   1.7589   1.7803
  1.8092   1.8121   1.8550   1.8686   1.8700   1.9180   1.9342   1.9441
  1.9994   2.0190   2.0226   2.0333   2.0428   2.0673   2.1096   2.1140
  2.1535   2.1716   2.2818   2.3166   2.3367   2.3441   2.3803   2.4083
  2.4342   2.4421   2.5219   2.5751   2.6418   2.6937   2.9660
 --------------------------------------------------------------

          Ground-State Mulliken Net Atomic Charges

     Atom                 Charge (a.u.)
  ----------------------------------------
      1 C                     0.022759
      2 C                     0.037393
      3 C                    -0.084795
      4 C                    -0.083859
      5 C                     0.037709
      6 C                     0.023277
      7 H                     0.011349
      8 H                     0.018465
      9 H                     0.017167
     10 H                     0.010362
     11 H                    -0.033486
     12 H                    -0.033732
     13 H                     0.010318
     14 H                     0.017377
     15 H                     0.011361
     16 H                     0.018333
  ----------------------------------------
  Sum of atomic charges =     0.000000

 -----------------------------------------------------------------
                    Cartesian Multipole Moments
 -----------------------------------------------------------------
    Charge (ESU x 10^10)
                 0.0000
    Dipole Moment (Debye)
         X      -0.0983      Y       0.0853      Z       0.0163
       Tot       0.1311
    Quadrupole Moments (Debye-Ang)
        XX     -38.2819     XY      -0.1593     YY     -38.2888
        XZ      -0.1926     YZ      -0.0228     ZZ     -39.2162
    Octopole Moments (Debye-Ang^2)
       XXX      -3.6958    XXY      -0.9196    XYY       0.2977
       YYY       4.8984    XXZ       1.1656    XYZ       0.3046
       YYZ       1.0072    XZZ      -0.8206    YZZ       0.9229
       ZZZ       3.3136
    Hexadecapole Moments (Debye-Ang^3)
      XXXX    -229.8970   XXXY     -60.8074   XXYY     -81.0768
      XYYY     -59.7683   YYYY    -264.4511   XXXZ      -9.0175
      XXYZ      -1.1221   XYYZ      -3.8999   YYYZ      -1.5935
      XXZZ     -75.3988   XYZZ     -21.1772   YYZZ     -81.0899
      XZZZ     -11.2188   YZZZ      -0.2215   ZZZZ    -235.7250
 -----------------------------------------------------------------
 Calculating analytic gradient of the SCF energy
******************** LIBDISTORT ********************
  Authors: Maximilian Scheurer, Tim Stauch, Felix Zeller
  Applying pressure using XHCFF model.
  Please cite: 10.1063/5.0024671
  ------------------------------
    Pressure = 50000.00 MPa
    Pressure = 1.70e-03 au
   Tessellation Info: 
     Points (Hydrogen Atoms)            = 302
     Points (Heavy Atoms)               = 302
     Tessellation Sphere Scaling Factor = 1.00
****************************************************

 Discretize the solute cavity surface with Lebedev spheres
	Using 302 Lebedev grid points for each H atom
	Using 302 Lebedev grid points for other atoms
	Atomic van der Waals radii (Bondi set) will be scaled by 1.00
 Using smooth SwiG surface discretization
 Remove points where switching function is < 1.0e-08
 Keep 2306 surface tesserae and discard 2526 interior tesserae
 Molecular Surface Area = 116.525 Angst**2

 Gradient from external distort forces
            1           2           3           4           5           6
    1   0.0167844   0.0171144  -0.0136060  -0.0123308  -0.0066506  -0.0016203
    2   0.0069562   0.0060320   0.0132086   0.0090479  -0.0152573  -0.0196852
    3  -0.0171329   0.0163945  -0.0131822   0.0173337  -0.0184054   0.0142805
            7           8           9          10          11          12
    1   0.0126472   0.0044741   0.0020334   0.0152182  -0.0137573  -0.0138800
    2  -0.0150778   0.0196273   0.0201705  -0.0130431   0.0142135   0.0094159
    3  -0.0099838  -0.0088730   0.0087100   0.0093934  -0.0096153   0.0143586
           13          14          15          16
    1   0.0129542  -0.0209978   0.0183444  -0.0167273
    2  -0.0111574  -0.0039532  -0.0113122  -0.0091856
    3  -0.0139320  -0.0054088   0.0049258   0.0111368
Distort energy correction = 0.0000000 au.
Total Corrected Energy = -234.2948185 au.
Writing corrected energy to file.
 Gradient of SCF Energy
            1           2           3           4           5           6
    1   0.0166933   0.0171428  -0.0136779  -0.0123333  -0.0066767  -0.0016963
    2   0.0070491   0.0059954   0.0130159   0.0090955  -0.0152469  -0.0196445
    3  -0.0170951   0.0163961  -0.0131400   0.0172247  -0.0184074   0.0142561
            7           8           9          10          11          12
    1   0.0126845   0.0045100   0.0020198   0.0151943  -0.0136527  -0.0138488
    2  -0.0151074   0.0196070   0.0201754  -0.0130731   0.0143093   0.0093873
    3  -0.0099481  -0.0088510   0.0086978   0.0093961  -0.0096280   0.0143779
           13          14          15          16
    1   0.0130134  -0.0209877   0.0183527  -0.0167374
    2  -0.0111470  -0.0039310  -0.0112928  -0.0091922
    3  -0.0139015  -0.0054049   0.0049157   0.0111116
 Max gradient component =       2.099E-02
 RMS gradient           =       1.319E-02
 Gradient time:  CPU 2.79 s  wall 0.78 s

 *****************************************************
             Starting BFGS Algorithm
 *****************************************************
            LIBOPT3 RUN PARAMETERS

  Geometry Optimization Coordinates :
	Delocalized Natural Internal Coordinates

  Step Length Selection Method :
	Eigenvector Following Algorithm

  Convergence Criteria :
	Max Gradient Component    	3.00000000e-04
	Max Displacement Component	1.20000000e-03
	Absolute Energy Difference	1.00000000e-06

  Initial Hessian :
	Approximate Hessian - Simple Internal Coordinate Scaled

  Type of Verification :
	Verify with final updated Hessian
 *****************************************************

	OPTIMIZATION CYCLE:	1

 Scaling Magnitude of Eigenvalues
 	Minimum: -25.00000000	 Maximum: 25.00000000
 42 Hessian Eigenvalues to form next step
   0.10004041   0.10336735   0.11121036   0.11485092   0.11519781
   0.11813610   0.11843492   0.12494386   0.12658486   0.12965085
   0.12972007   0.12990612   0.12996006   0.13216536   0.13239337
   0.13441016   0.13600905   0.13823988   0.13916692   0.14179378
   0.14858699   0.14958152   0.15080007   0.15329420   0.18048440
   0.28211819   0.38436060   0.40726130   0.43745010   0.49808520
   0.49932239   0.50000000   0.50000000   0.50000000   0.50000000
   0.50000000   0.50000000   0.50000000   0.50000000   0.50000000
   0.50000000   0.50000000

 Minimum Search taking a RFO step
 Searching for Lambda that minimizes along all modes
	Value of Lambda  -0.02546390
	Norm of Stepsize  0.22163442
	RMS of Stepsize  0.03419893

	Performing Iterative Coordinate Back-Transformation

	  Starting from Previous Position

	  iter:	0	rms: 5.0839660224e-02	maxdev: 9.2677008267e-02
	  iter:	1	rms: 1.8132325063e-04	maxdev: 3.9323333644e-04
	  iter:	2	rms: 1.8935096611e-08	maxdev: 3.9430562746e-08	 Success!

	Finished Iterative Coordinate Back-Transformation
 Adding empirical dispersion correction 
 ----------------------------------------------------------------
 Doing -D3(BJ) with
 s6  =   1.00000e+00
 s8  =   7.87500e-01
 a1  =   4.28900e-01
 a2  =   4.44070e+00
 -D3 energy without 3body term =     -1.3774151949e-02 hartrees
 ----------------------------------------------------------------
             Standard Nuclear Orientation (Angstroms)
    I     Atom           X                Y                Z
 ----------------------------------------------------------------
    1      C       1.0025137774     0.7941313536    -0.7550497056
    2      C       1.0567906756     0.7711786400     0.7695685995
    3      C      -0.4770150750     0.4404654559    -0.7229416024
    4      C      -0.3682460807     0.2686689484     0.8130573402
    5      C      -0.7621503807    -1.0373089535    -0.8665924300
    6      C      -0.5014722843    -1.2354032616     0.6229182180
    7      H       1.6198990300     0.0480073353    -1.2493545182
    8      H       1.2278502149     1.7594188231    -1.1964384434
    9      H       1.1629965836     1.7648529339     1.1942231427
   10      H       1.8029228520     0.1255304105     1.2271828276
   11      H      -1.1542989730     1.1407981101    -1.2000236072
   12      H      -1.0514797369     0.7331732890     1.5159617417
   13      H      -0.1203147335    -1.5819589131    -1.5554935816
   14      H      -1.7945899299    -1.2361958179    -1.1379760235
   15      H       0.4055344073    -1.7854692571     0.8608736671
   16      H      -1.3223603468    -1.6917890966     1.1659723753
 ----------------------------------------------------------------
 Nuclear Repulsion Energy =         247.68832669 hartrees
 There are       23 alpha and       23 beta electrons
 Applying Cartesian multipole field
    Component          Value
    ---------          -----
     (2,0,0)        1.00000E-11
     (0,2,0)        2.00000E-11
     (0,0,2)       -3.00000E-11
 Nucleus-field energy     = 4.4574472672e-10 hartrees
 Requested basis set is cc-pVDZ
 There are 66 shells and 134 basis functions
 A cutoff of  1.0D-12 yielded   2201 shell pairs
 There are      9137 function pairs (      9992 Cartesian)
 Smallest overlap matrix eigenvalue = 9.21E-04
 Guess MOs from SCF MO coefficient file

 -----------------------------------------------------------------------
  General SCF calculation program by
  Eric Jon Sundstrom, Paul Horn, Yuezhi Mao, Dmitri Zuev, Alec White,
  David Stuck, Shaama M.S., Shane Yost, Joonho Lee, David Small,
  Daniel Levine, Susi Lehtola, Hugh Burton, Evgeny Epifanovsky,
  Bang C. Huynh
 -----------------------------------------------------------------------
 Exchange:  PBE      Correlation:  PBE
 Using SG-1 standard quadrature grid
 Dispersion:   Grimme D3
 A restricted SCF calculation will be
 performed using DIIS
 SCF converges when DIIS error is below 1.0e-08
 ---------------------------------------
  Cycle       Energy         DIIS error
 ---------------------------------------
    1    -234.2854102392      7.79e-04  
    2    -234.2868667434      3.31e-04  
    3    -234.2868001674      3.81e-04  
    4    -234.2871369999      2.18e-05  
    5    -234.2871378768      1.08e-05  
    6    -234.2871381243      1.86e-06  
    7    -234.2871381321      2.57e-07  
    8    -234.2871381323      6.84e-08  
    9    -234.2871381323      1.98e-08  
   10    -234.2871381323      6.52e-09  Convergence criterion met
 ---------------------------------------
 SCF time:   CPU 14.36s  wall 3.00s 
 SCF   energy in the final basis set =     -234.2871381323
 Total energy in the final basis set =     -234.2871381323

 --------------------------------------------------------------

                    Orbital Energies (a.u.)
 --------------------------------------------------------------

 Alpha MOs
 -- Occupied --
 -9.8833  -9.8832  -9.8807  -9.8806  -9.8801  -9.8801  -0.8081  -0.6843
 -0.6132  -0.5559  -0.5305  -0.4566  -0.4430  -0.4120  -0.4021  -0.3632
 -0.3347  -0.3045  -0.2981  -0.2854  -0.2549  -0.2370  -0.2270
 -- Virtual --
  0.0337   0.0498   0.0650   0.0749   0.0961   0.0982   0.1126   0.1210
  0.1230   0.1500   0.1698   0.1815   0.1928   0.1990   0.2380   0.3130
  0.3286   0.3475   0.3748   0.3953   0.4362   0.4460   0.4558   0.4824
  0.4872   0.5080   0.5175   0.5331   0.5423   0.5827   0.5858   0.6119
  0.6223   0.6254   0.6290   0.6322   0.6433   0.6539   0.6660   0.6744
  0.6775   0.6835   0.6921   0.7440   0.7810   0.9581   1.0235   1.0563
  1.0776   1.1009   1.1393   1.1507   1.1715   1.2383   1.2982   1.3315
  1.3800   1.3853   1.3883   1.4155   1.4615   1.4711   1.4833   1.5169
  1.5385   1.5923   1.5930   1.6033   1.6050   1.6229   1.6307   1.6389
  1.6565   1.6590   1.6815   1.6987   1.7133   1.7536   1.7839   1.8003
  1.8293   1.8422   1.8958   1.8999   1.9074   1.9498   1.9657   1.9957
  2.0331   2.0469   2.0632   2.0761   2.0779   2.1175   2.1399   2.1740
  2.1961   2.2211   2.3322   2.3709   2.3843   2.3980   2.4425   2.4739
  2.4872   2.5031   2.5895   2.6535   2.7142   2.7654   3.0593
 --------------------------------------------------------------

          Ground-State Mulliken Net Atomic Charges

     Atom                 Charge (a.u.)
  ----------------------------------------
      1 C                     0.052612
      2 C                     0.068787
      3 C                    -0.083159
      4 C                    -0.082009
      5 C                     0.069026
      6 C                     0.053215
      7 H                    -0.000313
      8 H                     0.007524
      9 H                     0.005478
     10 H                    -0.001036
     11 H                    -0.050810
     12 H                    -0.051019
     13 H                    -0.001095
     14 H                     0.005677
     15 H                    -0.000293
     16 H                     0.007415
  ----------------------------------------
  Sum of atomic charges =     0.000000

 -----------------------------------------------------------------
                    Cartesian Multipole Moments
 -----------------------------------------------------------------
    Charge (ESU x 10^10)
                -0.0000
    Dipole Moment (Debye)
         X      -0.1119      Y       0.0970      Z       0.0185
       Tot       0.1492
    Quadrupole Moments (Debye-Ang)
        XX     -38.1119     XY      -0.1848     YY     -38.1240
        XZ      -0.2005     YZ      -0.0334     ZZ     -39.0339
    Octopole Moments (Debye-Ang^2)
       XXX      -3.6304    XXY      -0.8429    XYY       0.2561
       YYY       4.7929    XXZ       1.1492    XYZ       0.2959
       YYZ       1.0044    XZZ      -0.8363    YZZ       0.9383
       ZZZ       3.2922
    Hexadecapole Moments (Debye-Ang^3)
      XXXX    -219.3173   XXXY     -56.8609   XXYY     -77.4718
      XYYY     -56.0030   YYYY    -251.5933   XXXZ      -8.7965
      XXYZ      -1.0532   XYYZ      -3.7337   YYYZ      -1.4278
      XXZZ     -72.7303   XYZZ     -19.8912   YYZZ     -78.0604
      XZZZ     -10.5306   YZZZ      -0.5138   ZZZZ    -225.6854
 -----------------------------------------------------------------
 Calculating analytic gradient of the SCF energy
******************** LIBDISTORT ********************
  Authors: Maximilian Scheurer, Tim Stauch, Felix Zeller
  Applying pressure using XHCFF model.
  Please cite: 10.1063/5.0024671
  ------------------------------
    Pressure = 50000.00 MPa
    Pressure = 1.70e-03 au
   Tessellation Info: 
     Points (Hydrogen Atoms)            = 302
     Points (Heavy Atoms)               = 302
     Tessellation Sphere Scaling Factor = 1.00
****************************************************

 Discretize the solute cavity surface with Lebedev spheres
	Using 302 Lebedev grid points for each H atom
	Using 302 Lebedev grid points for other atoms
	Atomic van der Waals radii (Bondi set) will be scaled by 1.00
 Using smooth SwiG surface discretization
 Remove points where switching function is < 1.0e-08
 Keep 2265 surface tesserae and discard 2567 interior tesserae
 Molecular Surface Area = 113.339 Angst**2

 Gradient from external distort forces
            1           2           3           4           5           6
    1   0.0170250   0.0174637  -0.0136484  -0.0123661  -0.0069921  -0.0019940
    2   0.0074881   0.0065547   0.0132483   0.0090519  -0.0155953  -0.0201409
    3  -0.0172092   0.0164663  -0.0129257   0.0171455  -0.0185204   0.0144721
            7           8           9          10          11          12
    1   0.0124463   0.0045338   0.0021314   0.0149873  -0.0136272  -0.0137467
    2  -0.0149753   0.0193844   0.0199471  -0.0129986   0.0140572   0.0093184
    3  -0.0098597  -0.0088087   0.0086121   0.0092662  -0.0095312   0.0142074
           13          14          15          16
    1   0.0128904  -0.0207614   0.0181733  -0.0165154
    2  -0.0109690  -0.0040359  -0.0111329  -0.0092023
    3  -0.0137727  -0.0053880   0.0048455   0.0110003
Distort energy correction = 0.0000000 au.
Total Corrected Energy = -234.2871381 au.
Writing corrected energy to file.
 Gradient of SCF Energy
            1           2           3           4           5           6
    1   0.0096841   0.0095635  -0.0076048  -0.0065625  -0.0037282  -0.0005102
    2   0.0038479   0.0032342   0.0066311   0.0054214  -0.0082035  -0.0116995
    3  -0.0110814   0.0105543  -0.0060947   0.0082556  -0.0117009   0.0094263
            7           8           9          10          11          12
    1   0.0037997   0.0007475  -0.0000074   0.0046573  -0.0043457  -0.0043963
    2  -0.0055077   0.0063674   0.0063586  -0.0047670   0.0045344   0.0030888
    3  -0.0023791  -0.0024838   0.0026271   0.0023559  -0.0027384   0.0042741
           13          14          15          16
    1   0.0048408  -0.0067304   0.0061871  -0.0055946
    2  -0.0033880  -0.0006112  -0.0030898  -0.0022172
    3  -0.0037663  -0.0014559   0.0008160   0.0033914
 Max gradient component =       1.170E-02
 RMS gradient           =       5.864E-03
 Gradient time:  CPU 2.78 s  wall 0.72 s

     Step 1	:
        Energy is -234.2871381323
                            Maximum         Tolerance       Converged?
         Gradient           2.63345062e-02	3.00000000e-04	false
         Displacement       1.31502466e-01	1.20000000e-03	false
         Energy change      7.68035986e-03	1.00000000e-06	false


	OPTIMIZATION CYCLE:	2

 Scaling Magnitude of Eigenvalues
 	Minimum: -25.00000000	 Maximum: 25.00000000
 42 Hessian Eigenvalues to form next step
   0.10003382   0.10336738   0.11115358   0.11485034   0.11519766
   0.11813605   0.11843493   0.12496622   0.12659451   0.12965034
   0.12972099   0.12990469   0.12995974   0.13216382   0.13239299
   0.13440974   0.13600629   0.13823877   0.13891707   0.14179281
   0.14870678   0.14958149   0.15046841   0.15329455   0.18048874
   0.27994299   0.32476959   0.38436162   0.40730096   0.43745013
   0.49810545   0.49932241   0.50000000   0.50000000   0.50000000
   0.50000000   0.50000000   0.50000000   0.50000000   0.50000000
   0.50000000   0.50647324

 Minimum Search taking a RFO step
 Searching for Lambda that minimizes along all modes
	Value of Lambda  -0.00613754
	Norm of Stepsize  0.13969666
	RMS of Stepsize  0.02155566

	Performing Iterative Coordinate Back-Transformation

	  Starting from Previous Position

	  iter:	0	rms: 3.0668637126e-02	maxdev: 5.5155320540e-02
	  iter:	1	rms: 6.6668580942e-05	maxdev: 1.1745859351e-04
	  iter:	2	rms: 2.8942603269e-09	maxdev: 8.1356405789e-09	 Success!

	Finished Iterative Coordinate Back-Transformation
 Adding empirical dispersion correction 
 ----------------------------------------------------------------
 Doing -D3(BJ) with
 s6  =   1.00000e+00
 s8  =   7.87500e-01
 a1  =   4.28900e-01
 a2  =   4.44070e+00
 -D3 energy without 3body term =     -1.3958748493e-02 hartrees
 ----------------------------------------------------------------
             Standard Nuclear Orientation (Angstroms)
    I     Atom           X                Y                Z
 ----------------------------------------------------------------
    1      C       0.9849615913     0.7781450754    -0.7430156577
    2      C       1.0388305602     0.7568854157     0.7570178565
    3      C      -0.4718769229     0.4359006284    -0.7138884455
    4      C      -0.3647112192     0.2658371864     0.8028053773
    5      C      -0.7483291837    -1.0193750666    -0.8530872384
    6      C      -0.4904485068    -1.2138263736     0.6122066814
    7      H       1.5937123950     0.0391544839    -1.2340170014
    8      H       1.2150131132     1.7315538207    -1.1807505654
    9      H       1.1508615473     1.7399953588     1.1766322312
   10      H       1.7753935152     0.1171134313     1.2116772477
   11      H      -1.1417901213     1.1288051758    -1.1872126266
   12      H      -1.0409262980     0.7250234065     1.4989934233
   13      H      -0.1130511817    -1.5561140176    -1.5367193153
   14      H      -1.7686392220    -1.2227610423    -1.1228211007
   15      H       0.4078483482    -1.7563286922     0.8495905068
   16      H      -1.3002684147    -1.6719087906     1.1484766269
 ----------------------------------------------------------------
 Nuclear Repulsion Energy =         251.38949373 hartrees
 There are       23 alpha and       23 beta electrons
 Applying Cartesian multipole field
    Component          Value
    ---------          -----
     (2,0,0)        1.00000E-11
     (0,2,0)        2.00000E-11
     (0,0,2)       -3.00000E-11
 Nucleus-field energy     = 4.1655129242e-10 hartrees
 Requested basis set is cc-pVDZ
 There are 66 shells and 134 basis functions
 A cutoff of  1.0D-12 yielded   2201 shell pairs
 There are      9137 function pairs (      9992 Cartesian)
 Smallest overlap matrix eigenvalue = 8.27E-04
 Guess MOs from SCF MO coefficient file

 -----------------------------------------------------------------------
  General SCF calculation program by
  Eric Jon Sundstrom, Paul Horn, Yuezhi Mao, Dmitri Zuev, Alec White,
  David Stuck, Shaama M.S., Shane Yost, Joonho Lee, David Small,
  Daniel Levine, Susi Lehtola, Hugh Burton, Evgeny Epifanovsky,
  Bang C. Huynh
 -----------------------------------------------------------------------
 Exchange:  PBE      Correlation:  PBE
 Using SG-1 standard quadrature grid
 Dispersion:   Grimme D3
 A restricted SCF calculation will be
 performed using DIIS
 SCF converges when DIIS error is below 1.0e-08
 ---------------------------------------
  Cycle       Energy         DIIS error
 ---------------------------------------
    1    -234.2735450629      5.11e-04  
    2    -234.2741830303      2.25e-04  
    3    -234.2741512789      2.57e-04  
    4    -234.2743015348      1.09e-05  
    5    -234.2743017325      6.19e-06  
    6    -234.2743018139      7.44e-07  
    7    -234.2743018151      1.24e-07  
    8    -234.2743018152      3.95e-08  
    9    -234.2743018152      1.01e-08  
   10    -234.2743018152      2.78e-09  Convergence criterion met
 ---------------------------------------
 SCF time:   CPU 14.44s  wall 4.00s 
 SCF   energy in the final basis set =     -234.2743018152
 Total energy in the final basis set =     -234.2743018152

 --------------------------------------------------------------

                    Orbital Energies (a.u.)
 --------------------------------------------------------------

 Alpha MOs
 -- Occupied --
 -9.8770  -9.8768  -9.8744  -9.8744  -9.8739  -9.8738  -0.8222  -0.6923
 -0.6187  -0.5598  -0.5320  -0.4639  -0.4433  -0.4177  -0.4081  -0.3660
 -0.3368  -0.3073  -0.2979  -0.2880  -0.2542  -0.2361  -0.2262
 -- Virtual --
  0.0345   0.0514   0.0692   0.0777   0.0995   0.1035   0.1156   0.1248
  0.1271   0.1534   0.1747   0.1878   0.2004   0.2085   0.2499   0.3182
  0.3340   0.3559   0.3722   0.3916   0.4414   0.4443   0.4582   0.4867
  0.4943   0.5137   0.5284   0.5370   0.5484   0.5961   0.5977   0.6195
  0.6314   0.6325   0.6354   0.6357   0.6528   0.6638   0.6791   0.6855
  0.6862   0.6928   0.6933   0.7452   0.7914   0.9676   1.0294   1.0636
  1.0922   1.1100   1.1532   1.1654   1.1852   1.2489   1.3110   1.3439
  1.3920   1.3967   1.4019   1.4303   1.4801   1.4853   1.4995   1.5317
  1.5399   1.6045   1.6049   1.6133   1.6161   1.6391   1.6444   1.6551
  1.6644   1.6738   1.6976   1.7202   1.7267   1.7810   1.7998   1.8120
  1.8397   1.8648   1.9152   1.9183   1.9396   1.9704   1.9851   2.0256
  2.0553   2.0668   2.0833   2.0949   2.1081   2.1496   2.1611   2.2112
  2.2215   2.2528   2.3601   2.4007   2.4132   2.4302   2.4800   2.5128
  2.5192   2.5398   2.6309   2.7032   2.7627   2.8112   3.1196
 --------------------------------------------------------------

          Ground-State Mulliken Net Atomic Charges

     Atom                 Charge (a.u.)
  ----------------------------------------
      1 C                     0.070656
      2 C                     0.088059
      3 C                    -0.081674
      4 C                    -0.080349
      5 C                     0.088163
      6 C                     0.071287
      7 H                    -0.007627
      8 H                     0.000769
      9 H                    -0.001779
     10 H                    -0.008229
     11 H                    -0.061169
     12 H                    -0.061344
     13 H                    -0.008276
     14 H                    -0.001613
     15 H                    -0.007561
     16 H                     0.000686
  ----------------------------------------
  Sum of atomic charges =     0.000000

 -----------------------------------------------------------------
                    Cartesian Multipole Moments
 -----------------------------------------------------------------
    Charge (ESU x 10^10)
                 0.0000
    Dipole Moment (Debye)
         X      -0.1204      Y       0.1043      Z       0.0197
       Tot       0.1605
    Quadrupole Moments (Debye-Ang)
        XX     -38.0149     XY      -0.1754     YY     -38.0239
        XZ      -0.2046     YZ      -0.0437     ZZ     -38.9263
    Octopole Moments (Debye-Ang^2)
       XXX      -3.5623    XXY      -0.7787    XYY       0.2238
       YYY       4.6908    XXZ       1.1305    XYZ       0.2821
       YYZ       1.0083    XZZ      -0.8316    YZZ       0.9388
       ZZZ       3.2674
    Hexadecapole Moments (Debye-Ang^3)
      XXXX    -213.0186   XXXY     -54.4372   XXYY     -75.2626
      XYYY     -53.6732   YYYY    -243.8806   XXXZ      -8.6540
      XXYZ      -1.0034   XYYZ      -3.6111   YYYZ      -1.3430
      XXZZ     -71.0826   XYZZ     -19.1055   YYZZ     -76.2060
      XZZZ     -10.0962   YZZZ      -0.6825   ZZZZ    -219.4678
 -----------------------------------------------------------------
 Calculating analytic gradient of the SCF energy
******************** LIBDISTORT ********************
  Authors: Maximilian Scheurer, Tim Stauch, Felix Zeller
  Applying pressure using XHCFF model.
  Please cite: 10.1063/5.0024671
  ------------------------------
    Pressure = 50000.00 MPa
    Pressure = 1.70e-03 au
   Tessellation Info: 
     Points (Hydrogen Atoms)            = 302
     Points (Heavy Atoms)               = 302
     Tessellation Sphere Scaling Factor = 1.00
****************************************************

 Discretize the solute cavity surface with Lebedev spheres
	Using 302 Lebedev grid points for each H atom
	Using 302 Lebedev grid points for other atoms
	Atomic van der Waals radii (Bondi set) will be scaled by 1.00
 Using smooth SwiG surface discretization
 Remove points where switching function is < 1.0e-08
 Keep 2249 surface tesserae and discard 2583 interior tesserae
 Molecular Surface Area = 111.434 Angst**2

 Gradient from external distort forces
            1           2           3           4           5           6
    1   0.0170511   0.0175870  -0.0136358  -0.0123475  -0.0072741  -0.0021237
    2   0.0077467   0.0069055   0.0132531   0.0090214  -0.0157491  -0.0202734
    3  -0.0172097   0.0164488  -0.0127592   0.0170157  -0.0184629   0.0144754
            7           8           9          10          11          12
    1   0.0123526   0.0046427   0.0022507   0.0148571  -0.0135452  -0.0136722
    2  -0.0148618   0.0192275   0.0198193  -0.0129393   0.0139678   0.0092494
    3  -0.0098363  -0.0087736   0.0085501   0.0092494  -0.0094950   0.0141357
           13          14          15          16
    1   0.0128088  -0.0206144   0.0180327  -0.0163698
    2  -0.0108618  -0.0041486  -0.0110758  -0.0092808
    3  -0.0137274  -0.0053770   0.0048549   0.0109112
Distort energy correction = 0.0000000 au.
Total Corrected Energy = -234.2743018 au.
Writing corrected energy to file.
 Gradient of SCF Energy
            1           2           3           4           5           6
    1   0.0013365   0.0008285  -0.0000113   0.0001843  -0.0006467   0.0000851
    2   0.0006568   0.0002872  -0.0005093   0.0003371  -0.0004218  -0.0018485
    3  -0.0029257   0.0025709   0.0006622  -0.0008039  -0.0026623   0.0025809
            7           8           9          10          11          12
    1  -0.0011896  -0.0011539  -0.0009309  -0.0013257   0.0008122   0.0008136
    2   0.0001304  -0.0010042  -0.0012759   0.0000179  -0.0008822  -0.0004068
    3   0.0017460   0.0011036  -0.0007780  -0.0015298   0.0010616  -0.0013014
           13          14          15          16
    1   0.0001386   0.0012511  -0.0007651   0.0005734
    2   0.0009886   0.0010096   0.0014151   0.0015058
    3   0.0018524   0.0007244  -0.0013200  -0.0009809
 Max gradient component =       2.926E-03
 RMS gradient           =       1.235E-03
 Gradient time:  CPU 2.79 s  wall 0.73 s

     Step 2	:
        Energy is -234.2743018152
                            Maximum         Tolerance       Converged?
         Gradient           3.09839689e-03	3.00000000e-04	false
         Displacement       7.86829250e-02	1.20000000e-03	false
         Energy change      1.28363171e-02	1.00000000e-06	false


	OPTIMIZATION CYCLE:	3

 Scaling Magnitude of Eigenvalues
 	Minimum: -25.00000000	 Maximum: 25.00000000
 42 Hessian Eigenvalues to form next step
   0.09998592   0.10336731   0.11088410   0.11484865   0.11519808
   0.11813597   0.11843492   0.12482218   0.12655518   0.12964902
   0.12972107   0.12989840   0.12995672   0.13199947   0.13239279
   0.13440670   0.13554715   0.13692042   0.13824172   0.14179275
   0.14887132   0.14958156   0.15043108   0.15329454   0.18048814
   0.28011812   0.36647989   0.38436543   0.40758209   0.43745046
   0.49825340   0.49932249   0.50000000   0.50000000   0.50000000
   0.50000000   0.50000000   0.50000000   0.50000000   0.50000000
   0.50000345   0.51238573

 Minimum Search taking a RFO step
 Searching for Lambda that minimizes along all modes
	Value of Lambda  -0.00011846
	Norm of Stepsize  0.02144632
	RMS of Stepsize  0.00330924

	Performing Iterative Coordinate Back-Transformation

	  Starting from Previous Position

	  iter:	0	rms: 3.8928673486e-03	maxdev: 7.1149565583e-03
	  iter:	1	rms: 3.9478483067e-06	maxdev: 1.3580314788e-05
	  iter:	2	rms: 1.2759164160e-11	maxdev: 4.7279947865e-11	 Success!

	Finished Iterative Coordinate Back-Transformation
 Adding empirical dispersion correction 
 ----------------------------------------------------------------
 Doing -D3(BJ) with
 s6  =   1.00000e+00
 s8  =   7.87500e-01
 a1  =   4.28900e-01
 a2  =   4.44070e+00
 -D3 energy without 3body term =     -1.3938390474e-02 hartrees
 ----------------------------------------------------------------
             Standard Nuclear Orientation (Angstroms)
    I     Atom           X                Y                Z
 ----------------------------------------------------------------
    1      C       0.9862793193     0.7793467479    -0.7430871537
    2      C       1.0399701341     0.7586862584     0.7576243978
    3      C      -0.4721062662     0.4363370897    -0.7146039001
    4      C      -0.3649944750     0.2658328424     0.8036805704
    5      C      -0.7500452471    -1.0206917403    -0.8535388245
    6      C      -0.4914140553    -1.2153123334     0.6123061038
    7      H       1.5968063796     0.0411903609    -1.2368881289
    8      H       1.2183227514     1.7336594289    -1.1819847111
    9      H       1.1533087362     1.7432873475     1.1777425486
   10      H       1.7781600302     0.1200394485     1.2152865728
   11      H      -1.1427617305     1.1302347113    -1.1892176466
   12      H      -1.0421960436     0.7253538997     1.5012681071
   13      H      -0.1162842040    -1.5586369875    -1.5403657954
   14      H      -1.7716986416    -1.2255251177    -1.1238247528
   15      H       0.4069474970    -1.7600942437     0.8521026325
   16      H      -1.3017141846    -1.6756077128     1.1493879800
 ----------------------------------------------------------------
 Nuclear Repulsion Energy =         251.07536095 hartrees
 There are       23 alpha and       23 beta electrons
 Applying Cartesian multipole field
    Component          Value
    ---------          -----
     (2,0,0)        1.00000E-11
     (0,2,0)        2.00000E-11
     (0,0,2)       -3.00000E-11
 Nucleus-field energy     = 4.2126870031e-10 hartrees
 Requested basis set is cc-pVDZ
 There are 66 shells and 134 basis functions
 A cutoff of  1.0D-12 yielded   2201 shell pairs
 There are      9137 function pairs (      9992 Cartesian)
 Smallest overlap matrix eigenvalue = 8.34E-04
 Guess MOs from SCF MO coefficient file

 -----------------------------------------------------------------------
  General SCF calculation program by
  Eric Jon Sundstrom, Paul Horn, Yuezhi Mao, Dmitri Zuev, Alec White,
  David Stuck, Shaama M.S., Shane Yost, Joonho Lee, David Small,
  Daniel Levine, Susi Lehtola, Hugh Burton, Evgeny Epifanovsky,
  Bang C. Huynh
 -----------------------------------------------------------------------
 Exchange:  PBE      Correlation:  PBE
 Using SG-1 standard quadrature grid
 Dispersion:   Grimme D3
 A restricted SCF calculation will be
 performed using DIIS
 SCF converges when DIIS error is below 1.0e-08
 ---------------------------------------
  Cycle       Energy         DIIS error
 ---------------------------------------
    1    -234.2757592987      5.44e-05  
    2    -234.2757671606      1.42e-05  
    3    -234.2757670229      1.71e-05  
    4    -234.2757677061      2.30e-06  
    5    -234.2757677168      6.22e-07  
    6    -234.2757677175      1.93e-07  
    7    -234.2757677176      2.12e-08  
    8    -234.2757677177      5.21e-09  Convergence criterion met
 ---------------------------------------
 SCF time:   CPU 11.58s  wall 3.00s 
 SCF   energy in the final basis set =     -234.2757677177
 Total energy in the final basis set =     -234.2757677177

 --------------------------------------------------------------

                    Orbital Energies (a.u.)
 --------------------------------------------------------------

 Alpha MOs
 -- Occupied --
 -9.8777  -9.8775  -9.8751  -9.8750  -9.8745  -9.8744  -0.8212  -0.6918
 -0.6182  -0.5595  -0.5318  -0.4633  -0.4432  -0.4174  -0.4077  -0.3656
 -0.3363  -0.3068  -0.2974  -0.2882  -0.2540  -0.2364  -0.2265
 -- Virtual --
  0.0342   0.0512   0.0689   0.0775   0.0989   0.1029   0.1152   0.1246
  0.1266   0.1531   0.1741   0.1873   0.1996   0.2080   0.2490   0.3178
  0.3340   0.3552   0.3724   0.3918   0.4408   0.4445   0.4580   0.4864
  0.4936   0.5132   0.5273   0.5362   0.5476   0.5949   0.5967   0.6186
  0.6310   0.6315   0.6344   0.6350   0.6515   0.6629   0.6787   0.6845
  0.6847   0.6919   0.6933   0.7451   0.7904   0.9665   1.0283   1.0626
  1.0904   1.1087   1.1519   1.1638   1.1837   1.2474   1.3096   1.3424
  1.3911   1.3957   1.4005   1.4283   1.4782   1.4840   1.4974   1.5294
  1.5400   1.6036   1.6042   1.6128   1.6144   1.6372   1.6439   1.6543
  1.6636   1.6730   1.6969   1.7186   1.7259   1.7794   1.7977   1.8111
  1.8392   1.8625   1.9135   1.9161   1.9355   1.9680   1.9832   2.0219
  2.0533   2.0659   2.0806   2.0924   2.1045   2.1465   2.1597   2.2065
  2.2184   2.2500   2.3555   2.3966   2.4097   2.4260   2.4756   2.5076
  2.5162   2.5351   2.6267   2.6970   2.7593   2.8056   3.1140
 --------------------------------------------------------------

          Ground-State Mulliken Net Atomic Charges

     Atom                 Charge (a.u.)
  ----------------------------------------
      1 C                     0.068414
      2 C                     0.085854
      3 C                    -0.081509
      4 C                    -0.080207
      5 C                     0.085876
      6 C                     0.069098
      7 H                    -0.006840
      8 H                     0.001485
      9 H                    -0.000995
     10 H                    -0.007487
     11 H                    -0.059896
     12 H                    -0.060067
     13 H                    -0.007531
     14 H                    -0.000841
     15 H                    -0.006764
     16 H                     0.001411
  ----------------------------------------
  Sum of atomic charges =     0.000000

 -----------------------------------------------------------------
                    Cartesian Multipole Moments
 -----------------------------------------------------------------
    Charge (ESU x 10^10)
                 0.0000
    Dipole Moment (Debye)
         X      -0.1183      Y       0.1026      Z       0.0193
       Tot       0.1578
    Quadrupole Moments (Debye-Ang)
        XX     -38.0284     XY      -0.1586     YY     -38.0337
        XZ      -0.2007     YZ      -0.0444     ZZ     -38.9273
    Octopole Moments (Debye-Ang^2)
       XXX      -3.5263    XXY      -0.7621    XYY       0.2184
       YYY       4.6467    XXZ       1.1240    XYZ       0.2756
       YYZ       1.0136    XZZ      -0.8156    YZZ       0.9273
       ZZZ       3.2549
    Hexadecapole Moments (Debye-Ang^3)
      XXXX    -213.6624   XXXY     -54.6616   XXYY     -75.4539
      XYYY     -53.8851   YYYY    -244.6324   XXXZ      -8.6870
      XXYZ      -1.0034   XYYZ      -3.6087   YYYZ      -1.3824
      XXZZ     -71.2071   XYZZ     -19.1714   YYZZ     -76.3588
      XZZZ     -10.1422   YZZZ      -0.6809   ZZZZ    -219.9365
 -----------------------------------------------------------------
 Calculating analytic gradient of the SCF energy
******************** LIBDISTORT ********************
  Authors: Maximilian Scheurer, Tim Stauch, Felix Zeller
  Applying pressure using XHCFF model.
  Please cite: 10.1063/5.0024671
  ------------------------------
    Pressure = 50000.00 MPa
    Pressure = 1.70e-03 au
   Tessellation Info: 
     Points (Hydrogen Atoms)            = 302
     Points (Heavy Atoms)               = 302
     Tessellation Sphere Scaling Factor = 1.00
****************************************************

 Discretize the solute cavity surface with Lebedev spheres
	Using 302 Lebedev grid points for each H atom
	Using 302 Lebedev grid points for other atoms
	Atomic van der Waals radii (Bondi set) will be scaled by 1.00
 Using smooth SwiG surface discretization
 Remove points where switching function is < 1.0e-08
 Keep 2256 surface tesserae and discard 2576 interior tesserae
 Molecular Surface Area = 111.621 Angst**2

 Gradient from external distort forces
            1           2           3           4           5           6
    1   0.0169844   0.0175204  -0.0136267  -0.0123371  -0.0072331  -0.0020850
    2   0.0076837   0.0068350   0.0132549   0.0090113  -0.0156845  -0.0201756
    3  -0.0171506   0.0164119  -0.0127774   0.0170268  -0.0184048   0.0144091
            7           8           9          10          11          12
    1   0.0123745   0.0046800   0.0022755   0.0148798  -0.0135514  -0.0136832
    2  -0.0148417   0.0192338   0.0198370  -0.0129081   0.0139794   0.0092509
    3  -0.0098854  -0.0087903   0.0085558   0.0093047  -0.0095141   0.0141558
           13          14          15          16
    1   0.0127699  -0.0206282   0.0180289  -0.0163686
    2  -0.0108779  -0.0041741  -0.0111057  -0.0093186
    3  -0.0137815  -0.0053838   0.0049020   0.0109216
Distort energy correction = 0.0000000 au.
Total Corrected Energy = -234.2757677 au.
Writing corrected energy to file.
 Gradient of SCF Energy
            1           2           3           4           5           6
    1   0.0012009   0.0008570   0.0000261   0.0000041  -0.0007835  -0.0001591
    2   0.0007156   0.0005093  -0.0002348   0.0001895  -0.0005970  -0.0015638
    3  -0.0022133   0.0019711   0.0004942  -0.0006077  -0.0020219   0.0019502
            7           8           9          10          11          12
    1  -0.0004010  -0.0005871  -0.0004793  -0.0004416   0.0000336   0.0000403
    2  -0.0004488  -0.0000228  -0.0001913  -0.0005022  -0.0000906   0.0001156
    3   0.0009040   0.0005118  -0.0002235  -0.0007767   0.0004319  -0.0004302
           13          14          15          16
    1   0.0006239   0.0001644   0.0001108  -0.0002096
    2   0.0003341   0.0004810   0.0006086   0.0006974
    3   0.0008513   0.0002683  -0.0007548  -0.0003545
 Max gradient component =       2.213E-03
 RMS gradient           =       7.969E-04
 Gradient time:  CPU 2.80 s  wall 0.73 s

     Step 3	:
        Energy is -234.2757677177
                            Maximum         Tolerance       Converged?
         Gradient           1.59969304e-03	3.00000000e-04	false
         Displacement       1.06631826e-02	1.20000000e-03	false
         Energy change      1.46590246e-03	1.00000000e-06	false


	OPTIMIZATION CYCLE:	4

 Scaling Magnitude of Eigenvalues
 	Minimum: -25.00000000	 Maximum: 25.00000000
 42 Hessian Eigenvalues to form next step
   0.07265202   0.10119499   0.10336950   0.11449345   0.11496358
   0.11525908   0.11813678   0.11843515   0.12572950   0.12732985
   0.12965348   0.12974686   0.12991051   0.12996633   0.13239279
   0.13267357   0.13441192   0.13629520   0.13824042   0.14179273
   0.14916124   0.14958169   0.15064351   0.15329346   0.18048303
   0.27991003   0.38435652   0.40655832   0.43613701   0.43745386
   0.49329585   0.49878026   0.49932500   0.50000000   0.50000000
   0.50000000   0.50000000   0.50000000   0.50000000   0.50000000
   0.50000204   0.50356300

 Minimum Search taking a RFO step
 Searching for Lambda that minimizes along all modes
	Value of Lambda  -0.00005718
	Norm of Stepsize  0.02746620
	RMS of Stepsize  0.00423813

	Performing Iterative Coordinate Back-Transformation

	  Starting from Previous Position

	  iter:	0	rms: 2.9847027954e-03	maxdev: 7.6615731513e-03
	  iter:	1	rms: 5.5795443972e-06	maxdev: 1.6186114756e-05
	  iter:	2	rms: 1.7753313601e-11	maxdev: 6.0429002016e-11	 Success!

	Finished Iterative Coordinate Back-Transformation
 Adding empirical dispersion correction 
 ----------------------------------------------------------------
 Doing -D3(BJ) with
 s6  =   1.00000e+00
 s8  =   7.87500e-01
 a1  =   4.28900e-01
 a2  =   4.44070e+00
 -D3 energy without 3body term =     -1.3928999234e-02 hartrees
 ----------------------------------------------------------------
             Standard Nuclear Orientation (Angstroms)
    I     Atom           X                Y                Z
 ----------------------------------------------------------------
    1      C       0.9863749807     0.7791634145    -0.7422091542
    2      C       1.0397375219     0.7595592088     0.7574810414
    3      C      -0.4721815445     0.4366931507    -0.7149638346
    4      C      -0.3652235955     0.2657399804     0.8042395117
    5      C      -0.7508656768    -1.0206283312    -0.8531074169
    6      C      -0.4913594605    -1.2152545990     0.6115521070
    7      H       1.5983595305     0.0431069493    -1.2393660370
    8      H       1.2213824885     1.7331243338    -1.1825323670
    9      H       1.1549942782     1.7448283591     1.1777255231
   10      H       1.7790608063     0.1234797936     1.2190775649
   11      H      -1.1427427434     1.1309410992    -1.1909764797
   12      H      -1.0427787447     0.7248782550     1.5029416344
   13      H      -0.1203470997    -1.5593348534    -1.5438161628
   14      H      -1.7729090961    -1.2274063713    -1.1238670350
   15      H       0.4058890128    -1.7623136249     0.8544874878
   16      H      -1.3008106578    -1.6784767646     1.1492216168
 ----------------------------------------------------------------
 Nuclear Repulsion Energy =         251.00327116 hartrees
 There are       23 alpha and       23 beta electrons
 Applying Cartesian multipole field
    Component          Value
    ---------          -----
     (2,0,0)        1.00000E-11
     (0,2,0)        2.00000E-11
     (0,0,2)       -3.00000E-11
 Nucleus-field energy     = 4.2170391125e-10 hartrees
 Requested basis set is cc-pVDZ
 There are 66 shells and 134 basis functions
 A cutoff of  1.0D-12 yielded   2201 shell pairs
 There are      9137 function pairs (      9992 Cartesian)
 Smallest overlap matrix eigenvalue = 8.36E-04
 Guess MOs from SCF MO coefficient file

 -----------------------------------------------------------------------
  General SCF calculation program by
  Eric Jon Sundstrom, Paul Horn, Yuezhi Mao, Dmitri Zuev, Alec White,
  David Stuck, Shaama M.S., Shane Yost, Joonho Lee, David Small,
  Daniel Levine, Susi Lehtola, Hugh Burton, Evgeny Epifanovsky,
  Bang C. Huynh
 -----------------------------------------------------------------------
 Exchange:  PBE      Correlation:  PBE
 Using SG-1 standard quadrature grid
 Dispersion:   Grimme D3
 A restricted SCF calculation will be
 performed using DIIS
 SCF converges when DIIS error is below 1.0e-08
 ---------------------------------------
  Cycle       Energy         DIIS error
 ---------------------------------------
    1    -234.2761253020      4.47e-05  
    2    -234.2761322223      8.16e-06  
    3    -234.2761322705      7.22e-06  
    4    -234.2761323672      2.67e-06  
    5    -234.2761323838      2.03e-07  
    6    -234.2761323839      8.37e-08  
    7    -234.2761323839      1.68e-08  
    8    -234.2761323839      2.95e-09  Convergence criterion met
 ---------------------------------------
 SCF time:   CPU 11.45s  wall 3.00s 
 SCF   energy in the final basis set =     -234.2761323839
 Total energy in the final basis set =     -234.2761323839

 --------------------------------------------------------------

                    Orbital Energies (a.u.)
 --------------------------------------------------------------

 Alpha MOs
 -- Occupied --
 -9.8780  -9.8778  -9.8753  -9.8753  -9.8747  -9.8747  -0.8212  -0.6919
 -0.6180  -0.5594  -0.5318  -0.4631  -0.4433  -0.4175  -0.4076  -0.3653
 -0.3358  -0.3065  -0.2970  -0.2886  -0.2539  -0.2365  -0.2269
 -- Virtual --
  0.0340   0.0512   0.0688   0.0774   0.0986   0.1027   0.1149   0.1246
  0.1263   0.1531   0.1738   0.1871   0.1992   0.2081   0.2488   0.3176
  0.3345   0.3551   0.3725   0.3917   0.4406   0.4447   0.4581   0.4864
  0.4935   0.5129   0.5270   0.5356   0.5472   0.5943   0.5968   0.6182
  0.6308   0.6310   0.6342   0.6345   0.6509   0.6627   0.6787   0.6841
  0.6844   0.6918   0.6936   0.7451   0.7901   0.9660   1.0271   1.0622
  1.0895   1.1079   1.1513   1.1630   1.1829   1.2463   1.3089   1.3418
  1.3909   1.3956   1.3997   1.4272   1.4775   1.4835   1.4962   1.5278
  1.5402   1.6030   1.6049   1.6132   1.6133   1.6363   1.6445   1.6550
  1.6636   1.6736   1.6976   1.7187   1.7263   1.7800   1.7966   1.8113
  1.8395   1.8616   1.9135   1.9151   1.9329   1.9669   1.9827   2.0198
  2.0528   2.0669   2.0790   2.0910   2.1030   2.1458   2.1602   2.2042
  2.2169   2.2495   2.3528   2.3946   2.4084   2.4241   2.4737   2.5050
  2.5161   2.5330   2.6257   2.6938   2.7601   2.8023   3.1125
 --------------------------------------------------------------

          Ground-State Mulliken Net Atomic Charges

     Atom                 Charge (a.u.)
  ----------------------------------------
      1 C                     0.067309
      2 C                     0.085051
      3 C                    -0.081072
      4 C                    -0.079796
      5 C                     0.084936
      6 C                     0.068096
      7 H                    -0.006563
      8 H                     0.001682
      9 H                    -0.000774
     10 H                    -0.007258
     11 H                    -0.059331
     12 H                    -0.059490
     13 H                    -0.007302
     14 H                    -0.000639
     15 H                    -0.006475
     16 H                     0.001623
  ----------------------------------------
  Sum of atomic charges =     0.000000

 -----------------------------------------------------------------
                    Cartesian Multipole Moments
 -----------------------------------------------------------------
    Charge (ESU x 10^10)
                 0.0000
    Dipole Moment (Debye)
         X      -0.1166      Y       0.1012      Z       0.0189
       Tot       0.1555
    Quadrupole Moments (Debye-Ang)
        XX     -38.0368     XY      -0.1384     YY     -38.0375
        XZ      -0.1954     YZ      -0.0470     ZZ     -38.9084
    Octopole Moments (Debye-Ang^2)
       XXX      -3.4655    XXY      -0.7300    XYY       0.2064
       YYY       4.5696    XXZ       1.1129    XYZ       0.2652
       YYZ       1.0210    XZZ      -0.7941    YZZ       0.9120
       ZZZ       3.2346
    Hexadecapole Moments (Debye-Ang^3)
      XXXX    -213.8759   XXXY     -54.7140   XXYY     -75.4950
      XYYY     -53.9358   YYYY    -244.8455   XXXZ      -8.7225
      XXYZ      -0.9997   XYYZ      -3.5952   YYYZ      -1.4306
      XXZZ     -71.2097   XYZZ     -19.1719   YYZZ     -76.3761
      XZZZ     -10.1669   YZZZ      -0.6940   ZZZZ    -220.0185
 -----------------------------------------------------------------
 Calculating analytic gradient of the SCF energy
******************** LIBDISTORT ********************
  Authors: Maximilian Scheurer, Tim Stauch, Felix Zeller
  Applying pressure using XHCFF model.
  Please cite: 10.1063/5.0024671
  ------------------------------
    Pressure = 50000.00 MPa
    Pressure = 1.70e-03 au
   Tessellation Info: 
     Points (Hydrogen Atoms)            = 302
     Points (Heavy Atoms)               = 302
     Tessellation Sphere Scaling Factor = 1.00
****************************************************

 Discretize the solute cavity surface with Lebedev spheres
	Using 302 Lebedev grid points for each H atom
	Using 302 Lebedev grid points for other atoms
	Atomic van der Waals radii (Bondi set) will be scaled by 1.00
 Using smooth SwiG surface discretization
 Remove points where switching function is < 1.0e-08
 Keep 2257 surface tesserae and discard 2575 interior tesserae
 Molecular Surface Area = 111.676 Angst**2

 Gradient from external distort forces
            1           2           3           4           5           6
    1   0.0169079   0.0174564  -0.0136266  -0.0123356  -0.0071997  -0.0020414
    2   0.0076182   0.0067763   0.0132724   0.0090022  -0.0156273  -0.0200688
    3  -0.0170614   0.0163515  -0.0127847   0.0170322  -0.0183105   0.0143103
            7           8           9          10          11          12
    1   0.0123948   0.0047379   0.0023129   0.0148966  -0.0135457  -0.0136864
    2  -0.0147983   0.0192209   0.0198447  -0.0128515   0.0139831   0.0092413
    3  -0.0099486  -0.0088148   0.0085565   0.0093813  -0.0095385   0.0141749
           13          14          15          16
    1   0.0126997  -0.0206295   0.0180047  -0.0163460
    2  -0.0108881  -0.0042108  -0.0111407  -0.0093736
    3  -0.0138534  -0.0053907   0.0049653   0.0109305
Distort energy correction = 0.0000000 au.
Total Corrected Energy = -234.2761324 au.
Writing corrected energy to file.
 Gradient of SCF Energy
            1           2           3           4           5           6
    1   0.0004077   0.0002396   0.0004516   0.0001835  -0.0006606  -0.0003078
    2   0.0004719   0.0005039  -0.0002886  -0.0002511  -0.0002041  -0.0005185
    3  -0.0008345   0.0007471   0.0004942  -0.0006898  -0.0006771   0.0007755
            7           8           9          10          11          12
    1   0.0000806  -0.0000951  -0.0000331   0.0000311  -0.0003235  -0.0003025
    2  -0.0004816   0.0003220   0.0002346  -0.0005600   0.0002521   0.0003505
    3   0.0002528   0.0001078   0.0001304  -0.0002121   0.0000879  -0.0000002
           13          14          15          16
    1   0.0006326  -0.0002445   0.0003631  -0.0004227
    2  -0.0000228   0.0000337   0.0000474   0.0001106
    3   0.0001789  -0.0001073  -0.0002431  -0.0000105
 Max gradient component =       8.345E-04
 RMS gradient           =       3.846E-04
 Gradient time:  CPU 2.79 s  wall 0.73 s

     Step 4	:
        Energy is -234.2761323839
                            Maximum         Tolerance       Converged?
         Gradient           7.56808027e-04	3.00000000e-04	false
         Displacement       1.71018676e-02	1.20000000e-03	false
         Energy change      3.64666248e-04	1.00000000e-06	false


	OPTIMIZATION CYCLE:	5

 Scaling Magnitude of Eigenvalues
 	Minimum: -25.00000000	 Maximum: 25.00000000
 42 Hessian Eigenvalues to form next step
   0.03969888   0.10158366   0.10337034   0.11480357   0.11511564
   0.11635176   0.11813831   0.11843981   0.12572433   0.12754218
   0.12965961   0.12979985   0.12992048   0.13000740   0.13239376
   0.13290998   0.13441301   0.13643398   0.13824041   0.14179320
   0.14958116   0.15031256   0.15072954   0.15329337   0.18048130
   0.27782518   0.38435817   0.40646474   0.43539114   0.43744708
   0.49830888   0.49931580   0.49947905   0.50000000   0.50000000
   0.50000000   0.50000000   0.50000000   0.50000000   0.50000051
   0.50002814   0.57807524

 Minimum Search taking a RFO step
 Searching for Lambda that minimizes along all modes
	Value of Lambda  -0.00002310
	Norm of Stepsize  0.02261225
	RMS of Stepsize  0.00348915

	Performing Iterative Coordinate Back-Transformation

	  Starting from Previous Position

	  iter:	0	rms: 2.1395539794e-03	maxdev: 6.2891682523e-03
	  iter:	1	rms: 3.7031789823e-06	maxdev: 1.1769125634e-05
	  iter:	2	rms: 4.1116279953e-12	maxdev: 1.1491643680e-11	 Success!

	Finished Iterative Coordinate Back-Transformation
 Adding empirical dispersion correction 
 ----------------------------------------------------------------
 Doing -D3(BJ) with
 s6  =   1.00000e+00
 s8  =   7.87500e-01
 a1  =   4.28900e-01
 a2  =   4.44070e+00
 -D3 energy without 3body term =     -1.3927362760e-02 hartrees
 ----------------------------------------------------------------
             Standard Nuclear Orientation (Angstroms)
    I     Atom           X                Y                Z
 ----------------------------------------------------------------
    1      C       0.9860463798     0.7782551041    -0.7413347400
    2      C       1.0390543416     0.7596614188     0.7572820905
    3      C      -0.4723457093     0.4370310999    -0.7152565739
    4      C      -0.3654765182     0.2657702276     0.8047429753
    5      C      -0.7509538284    -1.0200041361    -0.8526893307
    6      C      -0.4906503227    -1.2146771282     0.6107361967
    7      H       1.5987403805     0.0441035278    -1.2406935768
    8      H       1.2231932821     1.7313207722    -1.1827534938
    9      H       1.1552852419     1.7450272013     1.1772001742
   10      H       1.7788560632     0.1261965356     1.2219803161
   11      H      -1.1421833547     1.1311162120    -1.1923816523
   12      H      -1.0428218573     0.7240619957     1.5041022301
   13      H      -0.1236788959    -1.5590002107    -1.5463137388
   14      H      -1.7729048489    -1.2277841173    -1.1233316013
   15      H       0.4052916464    -1.7630901396     0.8558365213
   16      H      -1.2988720000    -1.6798883632     1.1487622036
 ----------------------------------------------------------------
 Nuclear Repulsion Energy =         251.04064383 hartrees
 There are       23 alpha and       23 beta electrons
 Applying Cartesian multipole field
    Component          Value
    ---------          -----
     (2,0,0)        1.00000E-11
     (0,2,0)        2.00000E-11
     (0,0,2)       -3.00000E-11
 Nucleus-field energy     = 4.1851243171e-10 hartrees
 Requested basis set is cc-pVDZ
 There are 66 shells and 134 basis functions
 A cutoff of  1.0D-12 yielded   2201 shell pairs
 There are      9137 function pairs (      9992 Cartesian)
 Smallest overlap matrix eigenvalue = 8.36E-04
 Guess MOs from SCF MO coefficient file

 -----------------------------------------------------------------------
  General SCF calculation program by
  Eric Jon Sundstrom, Paul Horn, Yuezhi Mao, Dmitri Zuev, Alec White,
  David Stuck, Shaama M.S., Shane Yost, Joonho Lee, David Small,
  Daniel Levine, Susi Lehtola, Hugh Burton, Evgeny Epifanovsky,
  Bang C. Huynh
 -----------------------------------------------------------------------
 Exchange:  PBE      Correlation:  PBE
 Using SG-1 standard quadrature grid
 Dispersion:   Grimme D3
 A restricted SCF calculation will be
 performed using DIIS
 SCF converges when DIIS error is below 1.0e-08
 ---------------------------------------
  Cycle       Energy         DIIS error
 ---------------------------------------
    1    -234.2759426089      3.61e-05  
    2    -234.2759473253      7.53e-06  
    3    -234.2759471980      1.07e-05  
    4    -234.2759474516      1.12e-06  
    5    -234.2759474545      2.26e-07  
    6    -234.2759474547      6.21e-08  
    7    -234.2759474547      8.44e-09  Convergence criterion met
 ---------------------------------------
 SCF time:   CPU 10.17s  wall 2.00s 
 SCF   energy in the final basis set =     -234.2759474547
 Total energy in the final basis set =     -234.2759474547

 --------------------------------------------------------------

                    Orbital Energies (a.u.)
 --------------------------------------------------------------

 Alpha MOs
 -- Occupied --
 -9.8781  -9.8779  -9.8752  -9.8752  -9.8747  -9.8746  -0.8214  -0.6920
 -0.6182  -0.5594  -0.5319  -0.4631  -0.4434  -0.4176  -0.4077  -0.3651
 -0.3356  -0.3064  -0.2967  -0.2890  -0.2539  -0.2365  -0.2271
 -- Virtual --
  0.0340   0.0514   0.0687   0.0775   0.0986   0.1027   0.1149   0.1246
  0.1262   0.1532   0.1738   0.1871   0.1991   0.2084   0.2488   0.3176
  0.3348   0.3552   0.3727   0.3916   0.4407   0.4449   0.4583   0.4866
  0.4936   0.5128   0.5272   0.5354   0.5471   0.5942   0.5971   0.6182
  0.6309   0.6310   0.6343   0.6345   0.6509   0.6628   0.6789   0.6841
  0.6847   0.6920   0.6940   0.7451   0.7901   0.9659   1.0260   1.0622
  1.0894   1.1074   1.1512   1.1628   1.1825   1.2458   1.3088   1.3417
  1.3910   1.3959   1.3994   1.4267   1.4776   1.4834   1.4957   1.5271
  1.5405   1.6026   1.6057   1.6128   1.6141   1.6361   1.6454   1.6561
  1.6639   1.6746   1.6988   1.7195   1.7272   1.7813   1.7962   1.8119
  1.8397   1.8616   1.9143   1.9151   1.9316   1.9667   1.9829   2.0190
  2.0532   2.0684   2.0786   2.0907   2.1031   2.1465   2.1615   2.2037
  2.2165   2.2500   2.3521   2.3944   2.4088   2.4241   2.4736   2.5047
  2.5177   2.5328   2.6263   2.6930   2.7627   2.8010   3.1130
 --------------------------------------------------------------

          Ground-State Mulliken Net Atomic Charges

     Atom                 Charge (a.u.)
  ----------------------------------------
      1 C                     0.067095
      2 C                     0.085231
      3 C                    -0.080668
      4 C                    -0.079419
      5 C                     0.084997
      6 C                     0.067973
      7 H                    -0.006609
      8 H                     0.001565
      9 H                    -0.000904
     10 H                    -0.007337
     11 H                    -0.059306
     12 H                    -0.059454
     13 H                    -0.007386
     14 H                    -0.000780
     15 H                    -0.006513
     16 H                     0.001517
  ----------------------------------------
  Sum of atomic charges =     0.000000

 -----------------------------------------------------------------
                    Cartesian Multipole Moments
 -----------------------------------------------------------------
    Charge (ESU x 10^10)
                 0.0000
    Dipole Moment (Debye)
         X      -0.1157      Y       0.1004      Z       0.0186
       Tot       0.1544
    Quadrupole Moments (Debye-Ang)
        XX     -38.0405     XY      -0.1267     YY     -38.0384
        XZ      -0.1915     YZ      -0.0500     ZZ     -38.8840
    Octopole Moments (Debye-Ang^2)
       XXX      -3.4165    XXY      -0.7025    XYY       0.1952
       YYY       4.5063    XXZ       1.1047    XYZ       0.2573
       YYZ       1.0256    XZZ      -0.7797    YZZ       0.9017
       ZZZ       3.2185
    Hexadecapole Moments (Debye-Ang^3)
      XXXX    -213.8217   XXXY     -54.6692   XXYY     -75.4635
      XYYY     -53.8981   YYYY    -244.7398   XXXZ      -8.7533
      XXYZ      -1.0001   XYYZ      -3.5857   YYYZ      -1.4713
      XXZZ     -71.1639   XYZZ     -19.1424   YYZZ     -76.3316
      XZZZ     -10.1821   YZZZ      -0.7131   ZZZZ    -219.9524
 -----------------------------------------------------------------
 Calculating analytic gradient of the SCF energy
******************** LIBDISTORT ********************
  Authors: Maximilian Scheurer, Tim Stauch, Felix Zeller
  Applying pressure using XHCFF model.
  Please cite: 10.1063/5.0024671
  ------------------------------
    Pressure = 50000.00 MPa
    Pressure = 1.70e-03 au
   Tessellation Info: 
     Points (Hydrogen Atoms)            = 302
     Points (Heavy Atoms)               = 302
     Tessellation Sphere Scaling Factor = 1.00
****************************************************

 Discretize the solute cavity surface with Lebedev spheres
	Using 302 Lebedev grid points for each H atom
	Using 302 Lebedev grid points for other atoms
	Atomic van der Waals radii (Bondi set) will be scaled by 1.00
 Using smooth SwiG surface discretization
 Remove points where switching function is < 1.0e-08
 Keep 2257 surface tesserae and discard 2575 interior tesserae
 Molecular Surface Area = 111.654 Angst**2

 Gradient from external distort forces
            1           2           3           4           5           6
    1   0.0168658   0.0174278  -0.0136405  -0.0123484  -0.0071727  -0.0020066
    2   0.0075705   0.0067386   0.0133012   0.0090020  -0.0156029  -0.0200084
    3  -0.0169878   0.0163002  -0.0127835   0.0170340  -0.0182348   0.0142299
            7           8           9          10          11          12
    1   0.0124060   0.0047806   0.0023320   0.0149051  -0.0135318  -0.0136828
    2  -0.0147608   0.0192028   0.0198470  -0.0127979   0.0139811   0.0092254
    3  -0.0099922  -0.0088360   0.0085502   0.0094434  -0.0095608   0.0141889
           13          14          15          16
    1   0.0126336  -0.0206274   0.0179799  -0.0163207
    2  -0.0108925  -0.0042299  -0.0111637  -0.0094126
    3  -0.0139109  -0.0053879   0.0050096   0.0109375
Distort energy correction = 0.0000000 au.
Total Corrected Energy = -234.2759475 au.
Writing corrected energy to file.
 Gradient of SCF Energy
            1           2           3           4           5           6
    1  -0.0001600  -0.0002107   0.0005822   0.0002506  -0.0004374  -0.0002767
    2   0.0001826   0.0003702  -0.0002425  -0.0004371   0.0001224   0.0001999
    3   0.0000686  -0.0000500   0.0002659  -0.0004708   0.0001802   0.0000119
            7           8           9          10          11          12
    1   0.0002187   0.0001355   0.0001979   0.0001039  -0.0002915  -0.0002573
    2  -0.0001962   0.0001894   0.0001325  -0.0003299   0.0001982   0.0003234
    3  -0.0000374  -0.0000576   0.0002507   0.0000338   0.0000387   0.0000097
           13          14          15          16
    1   0.0003599  -0.0001351   0.0001622  -0.0002421
    2  -0.0000853  -0.0001568  -0.0001698  -0.0001010
    3  -0.0000527  -0.0002962   0.0000326   0.0000724
 Max gradient component =       5.822E-04
 RMS gradient           =       2.341E-04
 Gradient time:  CPU 2.83 s  wall 0.74 s

     Step 5	:
        Energy is -234.2759474547
                            Maximum         Tolerance       Converged?
         Gradient           5.13606548e-04	3.00000000e-04	false
         Displacement       1.21295995e-02	1.20000000e-03	false
         Energy change      1.84929235e-04	1.00000000e-06	false


	OPTIMIZATION CYCLE:	6

 Scaling Magnitude of Eigenvalues
 	Minimum: -25.00000000	 Maximum: 25.00000000
 42 Hessian Eigenvalues to form next step
   0.02985474   0.10282413   0.10338182   0.11483908   0.11514470
   0.11813251   0.11841747   0.12017596   0.12587248   0.12894730
   0.12966362   0.12984392   0.12993075   0.13016898   0.13239486
   0.13390344   0.13442682   0.13694859   0.13824041   0.14179368
   0.14958040   0.14989586   0.15056754   0.15329334   0.18048088
   0.27528268   0.38436118   0.40717777   0.43211858   0.43744600
   0.49827524   0.49931894   0.49954789   0.50000000   0.50000000
   0.50000000   0.50000000   0.50000000   0.50000003   0.50000054
   0.50013271   0.53602469

 Minimum Search taking a RFO step
 Searching for Lambda that minimizes along all modes
	Value of Lambda  -0.00000615
	Norm of Stepsize  0.01113011
	RMS of Stepsize  0.00171741

	Performing Iterative Coordinate Back-Transformation

	  Starting from Previous Position

	  iter:	0	rms: 1.1942022809e-03	maxdev: 3.1470686349e-03
	  iter:	1	rms: 1.0224063129e-06	maxdev: 4.0639789556e-06
	  iter:	2	rms: 7.6184130984e-13	maxdev: 2.7741504783e-12	 Success!

	Finished Iterative Coordinate Back-Transformation
 Adding empirical dispersion correction 
 ----------------------------------------------------------------
 Doing -D3(BJ) with
 s6  =   1.00000e+00
 s8  =   7.87500e-01
 a1  =   4.28900e-01
 a2  =   4.44070e+00
 -D3 energy without 3body term =     -1.3928623729e-02 hartrees
 ----------------------------------------------------------------
             Standard Nuclear Orientation (Angstroms)
    I     Atom           X                Y                Z
 ----------------------------------------------------------------
[...]
  Sum of atomic charges =     0.000000

 -----------------------------------------------------------------
                    Cartesian Multipole Moments
 -----------------------------------------------------------------
    Charge (ESU x 10^10)
                 0.0000
    Dipole Moment (Debye)
         X      -0.1073      Y       0.0933      Z       0.0174
       Tot       0.1433
    Quadrupole Moments (Debye-Ang)
        XX     -38.0663     XY      -0.1320     YY     -38.0454
        XZ      -0.2443     YZ      -0.1153     ZZ     -38.8571
    Octopole Moments (Debye-Ang^2)
       XXX      -3.2759    XXY      -0.6671    XYY       0.1769
       YYY       4.3899    XXZ       1.1721    XYZ       0.2512
       YYZ       0.9569    XZZ      -0.7484    YZZ       0.8519
       ZZZ       3.2187
    Hexadecapole Moments (Debye-Ang^3)
      XXXX    -214.1621   XXXY     -53.9705   XXYY     -75.3401
      XYYY     -53.0660   YYYY    -243.0959   XXXZ     -10.3907
      XXYZ      -1.9463   XYYZ      -4.4645   YYYZ      -3.7376
      XXZZ     -71.1517   XYZZ     -18.8365   YYZZ     -75.7959
      XZZZ     -11.9603   YZZZ      -3.0895   ZZZZ    -218.7688
 -----------------------------------------------------------------
 Calculating analytic gradient of the SCF energy
******************** LIBDISTORT ********************
  Authors: Maximilian Scheurer, Tim Stauch, Felix Zeller
  Applying pressure using XHCFF model.
  Please cite: 10.1063/5.0024671
  ------------------------------
    Pressure = 50000.00 MPa
    Pressure = 1.70e-03 au
   Tessellation Info: 
     Points (Hydrogen Atoms)            = 302
     Points (Heavy Atoms)               = 302
     Tessellation Sphere Scaling Factor = 1.00
****************************************************

 Discretize the solute cavity surface with Lebedev spheres
	Using 302 Lebedev grid points for each H atom
	Using 302 Lebedev grid points for other atoms
	Atomic van der Waals radii (Bondi set) will be scaled by 1.00
 Using smooth SwiG surface discretization
 Remove points where switching function is < 1.0e-08
 Keep 2250 surface tesserae and discard 2582 interior tesserae
 Molecular Surface Area = 111.347 Angst**2

 Gradient from external distort forces
            1           2           3           4           5           6
    1   0.0172401   0.0170629  -0.0133674  -0.0124599  -0.0077843  -0.0014087
    2   0.0070663   0.0075820   0.0136280   0.0085302  -0.0151919  -0.0206544
    3  -0.0167405   0.0165915  -0.0129245   0.0168590  -0.0180773   0.0142452
            7           8           9          10          11          12
    1   0.0120584   0.0057433   0.0013288   0.0150298  -0.0129024  -0.0141565
    2  -0.0156928   0.0184993   0.0203562  -0.0117556   0.0145596   0.0084943
    3  -0.0089052  -0.0097613   0.0074790   0.0104434  -0.0096500   0.0141575
           13          14          15          16
    1   0.0114117  -0.0210765   0.0186013  -0.0153206
    2  -0.0110396  -0.0035086  -0.0104884  -0.0103847
    3  -0.0148287  -0.0041503   0.0038056   0.0114567
Distort energy correction = 0.0000000 au.
Total Corrected Energy = -234.2755102 au.
Writing corrected energy to file.
 Gradient of SCF Energy
            1           2           3           4           5           6
    1   0.0000513   0.0000405  -0.0000555   0.0000032   0.0000193  -0.0000751
    2  -0.0000508  -0.0000202  -0.0000059   0.0001271  -0.0000234   0.0000042
    3   0.0000583   0.0000080  -0.0001298   0.0001009   0.0000180  -0.0000487
            7           8           9          10          11          12
    1   0.0000369   0.0000204   0.0000084  -0.0000617   0.0000894  -0.0000249
    2  -0.0000072  -0.0000343  -0.0000188  -0.0000422   0.0000127  -0.0000255
    3   0.0000371   0.0000137   0.0000034   0.0000219  -0.0000421  -0.0000331
           13          14          15          16
    1   0.0000107   0.0000102  -0.0000536  -0.0000195
    2   0.0000078   0.0000392   0.0000075   0.0000296
    3   0.0000254  -0.0000365  -0.0000060   0.0000097
 Max gradient component =       1.298E-04
 RMS gradient           =       4.514E-05
 Gradient time:  CPU 2.88 s  wall 0.75 s

     Step 19	:
        Energy is -234.2755102340
                            Maximum         Tolerance       Converged?
         Gradient           6.89119480e-05	3.00000000e-04	true
         Displacement       2.99764292e-03	1.20000000e-03	false
         Energy change      3.79635224e-05	1.00000000e-06	false


	OPTIMIZATION CYCLE:	20

 Scaling Magnitude of Eigenvalues
 	Minimum: -25.00000000	 Maximum: 25.00000000
 42 Hessian Eigenvalues to form next step
   0.00057804   0.01582186   0.03519196   0.05279300   0.10438222
   0.11461633   0.11507057   0.11779254   0.11836573   0.12280908
   0.12762467   0.12969214   0.12977565   0.12994471   0.13118030
   0.13231375   0.13437777   0.13515562   0.13818798   0.14178258
   0.14638036   0.14958341   0.15063733   0.15327493   0.18052522
   0.23429381   0.38435912   0.40583778   0.43718103   0.44049400
   0.49758744   0.49887534   0.49930975   0.49937310   0.49993941
   0.49999577   0.49999939   0.50000034   0.50000217   0.50002127
   0.50005896   0.56360140

 Minimum Search taking a RFO step
 Searching for Lambda that minimizes along all modes
	Value of Lambda  -0.00000019
	Norm of Stepsize  0.00242086
	RMS of Stepsize  0.00037355

	Performing Iterative Coordinate Back-Transformation

	  Starting from Previous Position

	  iter:	0	rms: 3.6748402282e-04	maxdev: 1.0822844003e-03
	  iter:	1	rms: 8.3591452819e-08	maxdev: 2.3188652313e-07	 Success!

	Finished Iterative Coordinate Back-Transformation
 Adding empirical dispersion correction 
 ----------------------------------------------------------------
 Doing -D3(BJ) with
 s6  =   1.00000e+00
 s8  =   7.87500e-01
 a1  =   4.28900e-01
 a2  =   4.44070e+00
 -D3 energy without 3body term =     -1.3960553351e-02 hartrees
 ----------------------------------------------------------------
             Standard Nuclear Orientation (Angstroms)
    I     Atom           X                Y                Z
 ----------------------------------------------------------------
    1      C       1.0018789000     0.7399156941    -0.7216037058
    2      C       1.0202871235     0.7858989704     0.7767586212
    3      C      -0.4689610752     0.4427992625    -0.7151209807
    4      C      -0.3712423723     0.2615391553     0.8052136586
    5      C      -0.7828945383    -1.0032309635    -0.8641930729
    6      C      -0.4547100153    -1.2196229273     0.5814480185
    7      H       1.5959757938    -0.0432135512    -1.1654191187
    8      H       1.2874458157     1.6573449888    -1.2066326722
    9      H       1.0874982992     1.7960315549     1.1454212664
   10      H       1.7676308746     0.2037861460     1.2934478979
   11      H      -1.1066621235     1.1647101415    -1.1941827162
   12      H      -1.0709167701     0.6832656987     1.5050844476
   13      H      -0.2151810398    -1.5500435100    -1.6012350681
   14      H      -1.8261276092    -1.1759349178    -1.0706312711
   15      H       0.4752394561    -1.7319825935     0.7703040450
   16      H      -1.2126807192    -1.7331631489     1.1472286506
 ----------------------------------------------------------------
 Nuclear Repulsion Energy =         251.34476286 hartrees
 There are       23 alpha and       23 beta electrons
 Applying Cartesian multipole field
    Component          Value
    ---------          -----
     (2,0,0)        1.00000E-11
     (0,2,0)        2.00000E-11
     (0,0,2)       -3.00000E-11
 Nucleus-field energy     = 4.1656993815e-10 hartrees
 Requested basis set is cc-pVDZ
 There are 66 shells and 134 basis functions
 A cutoff of  1.0D-12 yielded   2201 shell pairs
 There are      9137 function pairs (      9992 Cartesian)
 Smallest overlap matrix eigenvalue = 8.31E-04
 Guess MOs from SCF MO coefficient file

 -----------------------------------------------------------------------
  General SCF calculation program by
  Eric Jon Sundstrom, Paul Horn, Yuezhi Mao, Dmitri Zuev, Alec White,
  David Stuck, Shaama M.S., Shane Yost, Joonho Lee, David Small,
  Daniel Levine, Susi Lehtola, Hugh Burton, Evgeny Epifanovsky,
  Bang C. Huynh
 -----------------------------------------------------------------------
 Exchange:  PBE      Correlation:  PBE
 Using SG-1 standard quadrature grid
 Dispersion:   Grimme D3
 A restricted SCF calculation will be
 performed using DIIS
 SCF converges when DIIS error is below 1.0e-08
 ---------------------------------------
  Cycle       Energy         DIIS error
 ---------------------------------------
    1    -234.2755307635      5.27e-06  
    2    -234.2755308674      5.49e-07  
    3    -234.2755308670      7.01e-07  
    4    -234.2755308682      9.18e-08  
    5    -234.2755308682      2.59e-08  
    6    -234.2755308682      8.10e-09  Convergence criterion met
 ---------------------------------------
 SCF time:   CPU 8.82s  wall 2.00s 
 SCF   energy in the final basis set =     -234.2755308682
 Total energy in the final basis set =     -234.2755308682

 --------------------------------------------------------------

                    Orbital Energies (a.u.)
 --------------------------------------------------------------

 Alpha MOs
 -- Occupied --
 -9.8785  -9.8784  -9.8756  -9.8755  -9.8747  -9.8747  -0.8227  -0.6922
 -0.6178  -0.5596  -0.5326  -0.4630  -0.4448  -0.4170  -0.4081  -0.3655
 -0.3340  -0.3070  -0.2973  -0.2889  -0.2541  -0.2374  -0.2277
 -- Virtual --
  0.0353   0.0520   0.0678   0.0784   0.0996   0.1024   0.1176   0.1263
  0.1264   0.1523   0.1710   0.1831   0.1975   0.2045   0.2472   0.3090
  0.3309   0.3584   0.3754   0.3929   0.4403   0.4440   0.4511   0.4911
  0.4935   0.5110   0.5281   0.5421   0.5500   0.5946   0.5969   0.6175
  0.6277   0.6330   0.6356   0.6358   0.6498   0.6595   0.6800   0.6822
  0.6861   0.6951   0.6988   0.7469   0.7869   0.9520   1.0258   1.0670
  1.0894   1.0964   1.1547   1.1716   1.1808   1.2316   1.3201   1.3364
  1.3912   1.3969   1.3982   1.4280   1.4762   1.4771   1.4969   1.5324
  1.5515   1.5954   1.5973   1.6075   1.6123   1.6349   1.6418   1.6585
  1.6651   1.6786   1.7044   1.7048   1.7213   1.7906   1.8047   1.8167
  1.8178   1.8559   1.9056   1.9255   1.9297   1.9616   1.9924   2.0283
  2.0488   2.0627   2.0844   2.0933   2.1028   2.1380   2.1598   2.1846
  2.2197   2.2473   2.3474   2.3886   2.4106   2.4284   2.4705   2.4950
  2.5260   2.5307   2.6306   2.6744   2.7830   2.8007   3.0790
 --------------------------------------------------------------

          Ground-State Mulliken Net Atomic Charges

     Atom                 Charge (a.u.)
  ----------------------------------------
      1 C                     0.059318
      2 C                     0.088931
      3 C                    -0.077228
      4 C                    -0.076431
      5 C                     0.088992
      6 C                     0.060423
      7 H                    -0.005564
      8 H                     0.001327
      9 H                    -0.000708
     10 H                    -0.007177
     11 H                    -0.059701
     12 H                    -0.059834
     13 H                    -0.007302
     14 H                    -0.000561
     15 H                    -0.005578
     16 H                     0.001092
  ----------------------------------------
  Sum of atomic charges =     0.000000

 -----------------------------------------------------------------
                    Cartesian Multipole Moments
 -----------------------------------------------------------------
    Charge (ESU x 10^10)
                -0.0000
    Dipole Moment (Debye)
         X      -0.1076      Y       0.0935      Z       0.0174
       Tot       0.1436
    Quadrupole Moments (Debye-Ang)
        XX     -38.0656     XY      -0.1314     YY     -38.0451
        XZ      -0.2439     YZ      -0.1145     ZZ     -38.8590
    Octopole Moments (Debye-Ang^2)
       XXX      -3.2851    XXY      -0.6665    XYY       0.1751
       YYY       4.3975    XXZ       1.1729    XYZ       0.2510
       YYZ       0.9582    XZZ      -0.7489    YZZ       0.8528
       ZZZ       3.2189
    Hexadecapole Moments (Debye-Ang^3)
      XXXX    -214.1697   XXXY     -53.9803   XXYY     -75.3433
      XYYY     -53.0762   YYYY    -243.1265   XXXZ     -10.3835
      XXYZ      -1.9435   XYYZ      -4.4616   YYYZ      -3.7280
      XXZZ     -71.1548   XYZZ     -18.8423   YYZZ     -75.8032
      XZZZ     -11.9518   YZZZ      -3.0776   ZZZZ    -218.7744
 -----------------------------------------------------------------
 Calculating analytic gradient of the SCF energy
******************** LIBDISTORT ********************
  Authors: Maximilian Scheurer, Tim Stauch, Felix Zeller
  Applying pressure using XHCFF model.
  Please cite: 10.1063/5.0024671
  ------------------------------
    Pressure = 50000.00 MPa
    Pressure = 1.70e-03 au
   Tessellation Info: 
     Points (Hydrogen Atoms)            = 302
     Points (Heavy Atoms)               = 302
     Tessellation Sphere Scaling Factor = 1.00
****************************************************

 Discretize the solute cavity surface with Lebedev spheres
	Using 302 Lebedev grid points for each H atom
	Using 302 Lebedev grid points for other atoms
	Atomic van der Waals radii (Bondi set) will be scaled by 1.00
 Using smooth SwiG surface discretization
 Remove points where switching function is < 1.0e-08
 Keep 2250 surface tesserae and discard 2582 interior tesserae
 Molecular Surface Area = 111.351 Angst**2

 Gradient from external distort forces
            1           2           3           4           5           6
    1   0.0172399   0.0170623  -0.0133628  -0.0124564  -0.0077790  -0.0013992
    2   0.0070671   0.0075759   0.0136250   0.0085243  -0.0151924  -0.0206542
    3  -0.0167444   0.0165914  -0.0129252   0.0168630  -0.0180793   0.0142427
            7           8           9          10          11          12
    1   0.0120575   0.0057405   0.0013270   0.0150320  -0.0129083  -0.0141569
    2  -0.0156912   0.0185035   0.0203559  -0.0117548   0.0145581   0.0085007
    3  -0.0089105  -0.0097551   0.0074803   0.0104423  -0.0096453   0.0141540
           13          14          15          16
    1   0.0114122  -0.0210770   0.0185986  -0.0153305
    2  -0.0110392  -0.0035086  -0.0104912  -0.0103790
    3  -0.0148294  -0.0041493   0.0038151   0.0114495
Distort energy correction = 0.0000000 au.
Total Corrected Energy = -234.2755309 au.
Writing corrected energy to file.
 Gradient of SCF Energy
            1           2           3           4           5           6
    1   0.0000484   0.0000176   0.0000042   0.0000229  -0.0000170  -0.0000594
    2  -0.0000470   0.0000118  -0.0000273   0.0000702  -0.0000142   0.0000009
    3   0.0000477  -0.0000041  -0.0000783   0.0000456   0.0000244  -0.0000429
            7           8           9          10          11          12
    1   0.0000346   0.0000303   0.0000118  -0.0000416   0.0000594  -0.0000493
    2  -0.0000347  -0.0000063   0.0000021  -0.0000568   0.0000322   0.0000046
    3   0.0000215   0.0000263   0.0000071   0.0000378  -0.0000469  -0.0000249
           13          14          15          16
    1   0.0000277  -0.0000099  -0.0000258  -0.0000539
    2  -0.0000022   0.0000354   0.0000085   0.0000228
    3   0.0000009  -0.0000263   0.0000135  -0.0000014
 Max gradient component =       7.834E-05
 RMS gradient           =       3.424E-05
 Gradient time:  CPU 2.87 s  wall 0.75 s

     Step 20	:
        Energy is -234.2755308682
                            Maximum         Tolerance       Converged?
         Gradient           3.57426464e-05	3.00000000e-04	true
         Displacement       1.04758704e-03	1.20000000e-03	true
         Energy change      2.06341666e-05	1.00000000e-06	false

	 Optimization Converged in 20 cycles

 *****************************************************
             End of BFGS Algorithm
 *****************************************************
		----------------------------------
		   Verification of Optimization
		----------------------------------

 Eigenvalues of Hessian in Optimization Verification
   0.00056995   0.01567656   0.02877732   0.05368699   0.08576513
   0.10797553   0.11491337   0.11743596   0.11837594   0.12356633
   0.12825113   0.12969035   0.12978502   0.12994819   0.13220938
   0.13247968   0.13436750   0.13634620   0.13817300   0.14176456
   0.14746463   0.14958643   0.15322232   0.15655665   0.18020942
   0.21217377   0.38437254   0.40578130   0.43719147   0.43961272
   0.49773234   0.49910750   0.49931885   0.49983435   0.49993934
   0.49999697   0.49999960   0.50000064   0.50000227   0.50002753
   0.50039556   0.60815317

 Found a minimum
		---------------------------------
		       End of Verification
		---------------------------------

 Final energy is -234.275530868155

	******************************
	**  OPTIMIZATION CONVERGED  **
	******************************
 Adding empirical dispersion correction 
 ----------------------------------------------------------------
 Doing -D3(BJ) with
 s6  =   1.00000
 s8  =   0.78750
 a1  =   0.42890
 a2  =   4.44070
 -D3 energy without 3body term =     -0.0139605534 hartrees
 ----------------------------------------------------------------
             Standard Nuclear Orientation (Angstroms)
    I     Atom           X                Y                Z
 ----------------------------------------------------------------
    1      C       1.0018789000     0.7399156941    -0.7216037058
    2      C       1.0202871235     0.7858989704     0.7767586212
    3      C      -0.4689610752     0.4427992625    -0.7151209807
    4      C      -0.3712423723     0.2615391553     0.8052136586
    5      C      -0.7828945383    -1.0032309635    -0.8641930729
    6      C      -0.4547100153    -1.2196229273     0.5814480185
    7      H       1.5959757938    -0.0432135512    -1.1654191187
    8      H       1.2874458157     1.6573449888    -1.2066326722
    9      H       1.0874982992     1.7960315549     1.1454212664
   10      H       1.7676308746     0.2037861460     1.2934478979
   11      H      -1.1066621235     1.1647101415    -1.1941827162
   12      H      -1.0709167701     0.6832656987     1.5050844476
   13      H      -0.2151810398    -1.5500435100    -1.6012350681
   14      H      -1.8261276092    -1.1759349178    -1.0706312711
   15      H       0.4752394561    -1.7319825935     0.7703040450
   16      H      -1.2126807192    -1.7331631489     1.1472286506
 ----------------------------------------------------------------
 Nuclear Repulsion Energy =         251.34476286 hartrees
 There are       23 alpha and       23 beta electrons

Z-matrix Print:
$molecule
0 1
C 
H  1 1.075740
C  1 1.487319 2 118.865622
H  3 1.077403 1 112.479916 2 -24.866500 0
H  3 1.079049 1 116.656237 2 99.846945 0
C  3 1.499181 1 89.817779 2 -138.491629 0
H  6 1.076326 3 114.896844 1 128.020226 0
H  6 1.078524 3 115.263739 1 -107.278244 0
C  1 1.500293 2 116.608041 3 141.581138 0
H  9 1.076267 1 115.584432 2 -0.100275 0
H  9 1.078418 1 113.262896 2 -123.745870 0
C  9 1.498135 1 90.774099 2 118.212787 0
H  12 1.077394 9 111.953716 1 -104.720163 0
H  12 1.079136 9 118.074973 1 129.948488 0
C  12 1.487205 9 89.855386 1 9.366240 0
H  15 1.075787 12 118.862496 9 -138.677142 0
$end

 -----------------------------------------------------------------------
                  END OF GEOMETRY OPTIMIZER USING LIBOPT3               
 -----------------------------------------------------------------------
 Total job time:  75.76s(wall), 299.70s(cpu) 
 Tue Jul 11 08:37:45 2023

        *************************************************************
        *                                                           *
        *  Thank you very much for using Q-Chem.  Have a nice day.  *
        *                                                           *
        *************************************************************


