                  Welcome to Q-Chem
     A Quantum Leap Into The Future Of Chemistry


 Q-Chem 6.0 (devel), Q-Chem, Inc., Pleasanton, CA (2022)

 E. Epifanovsky,  A. T. B. Gilbert,  Xintian Feng,  Joonho Lee,  Yuezhi Mao,  
 N. Mardirossian,  P. Pokhilko,  A. White,  M. Wormit,  M. P. Coons,  
 A. L. Dempwolff,  Zhengting Gan,  D. Hait,  P. R. Horn,  L. D. Jacobson,  
 I. Kaliman,  J. Kussmann,  A. W. Lange,  Ka Un Lao,  D. S. Levine,  Jie Liu,  
 S. C. McKenzie,  A. F. Morrison,  K. Nanda,  F. Plasser,  D. R. Rehn,  
 M. L. Vidal,  Zhi-Qiang You,  Ying Zhu,  B. Alam,  B. Albrecht,  
 A. Aldossary,  E. Alguire,  J. H. Andersen,  V. Athavale,  D. Barton,  
 K. Begam,  A. Behn,  N. Bellonzi,  Y. A. Bernard,  E. J. Berquist,  
 H. Burton,  A. Carreras,  K. Carter-Fenk,  Romit Chakraborty,  
 Chandrima Chakravarty,  Junhan Chen,  A. D. Chien,  K. D. Closser,  
 V. Cofer-Shabica,  L. Cunha,  S. Dasgupta,  Jia Deng,  M. de Wergifosse,  
 M. Diedenhofen,  Hainam Do,  S. Ehlert,  Po-Tung Fang,  S. Fatehi,  
 Qingguo Feng,  T. Friedhoff,  B. Ganoe,  J. Gayvert,  Qinghui Ge,  
 G. Gidofalvi,  M. Goldey,  J. Gomes,  C. Gonzalez-Espinoza,  S. Gulania,  
 A. Gunina,  J. A. Gyamfi,  M. W. D. Hanson-Heine,  P. H. P. Harbach,  
 A. W. Hauser,  M. F. Herbst,  M. Hernandez Vera,  M. Hodecker,  
 Z. C. Holden,  S. Houck,  Xunkun Huang,  Kerwin Hui,  B. C. Huynh,  
 K. Ikeda,  M. Ivanov,  Hyunjun Ji,  Zuxin Jin,  Hanjie Jiang,  B. Kaduk,  
 S. Kaehler,  R. Kang,  K. Khistyaev,  Jaehoon Kim,  Yongbin Kim,  
 P. Klunzinger,  Z. Koczor-Benda,  Joong Hoon Koh,  D. Kosenkov,  
 Saikiran Kotaru,  L. Koulias,  T. Kowalczyk,  C. M. Krauter,  K. Kue,  
 A. Kunitsa,  T. Kus,  A. Landau,  K. V. Lawler,  D. Lefrancois,  S. Lehtola,  
 Rain Li,  Shaozhi Li,  Yi-Pei Li,  Jiashu Liang,  M. Liebenthal,  
 Hung-Hsuan Lin,  You-Sheng Lin,  Fenglai Liu,  Kuan-Yu Liu,  
 M. Loipersberger,  A. Luenser,  C. Malbon,  A. Manjanath,  P. Manohar,  
 E. Mansoor,  S. F. Manzer,  Shan-Ping Mao,  A. V. Marenich,  T. Markovich,  
 S. Mason,  F. Matz,  S. A. Maurer,  P. F. McLaughlin,  M. F. S. J. Menger,  
 J.-M. Mewes,  S. A. Mewes,  P. Morgante,  Mohammad Mostafanejad,  
 J. W. Mullinax,  K. J. Oosterbaan,  G. Paran,  V. Parravicini,  
 Alexander C. Paul,  Suranjan K. Paul,  F. Pavosevic,  Zheng Pei,  S. Prager,  
 E. I. Proynov,  E. Ramos,  B. Rana,  A. E. Rask,  A. Rettig,  R. M. Richard,  
 F. Rob,  E. Rossomme,  T. Scheele,  M. Scheurer,  M. Schneider,  
 P. E. Schneider,  N. Sergueev,  S. M. Sharada,  Hengyuan Shen,  
 W. Skomorowski,  D. W. Small,  C. J. Stein,  Yingli Su,  Yu-Chuan Su,  
 E. J. Sundstrom,  Zhen Tao,  J. Thirman,  Hung-Yi Tsai,  T. Tsuchimochi,  
 N. M. Tubman,  C. Utku,  S. P. Veccham,  O. Vydrov,  J. Wenzel,  
 Jonathan Wong,  J. Witte,  A. Yamada,  Chou-Hsun Yang,  Kun Yao,  
 S. Yeganeh,  S. R. Yost,  A. Zech,  F. Zeller,  Igor Ying Zhang,  
 Xing Zhang,  Yu Zhang,  D. Zuev,  A. Aspuru-Guzik,  A. T. Bell,  
 N. A. Besley,  K. B. Bravaya,  B. R. Brooks,  D. Casanova,  Jeng-Da Chai,  
 Hsing-Ta Chen,  S. Coriani,  C. J. Cramer,  A. E. DePrince, III,  
 R. A. DiStasio Jr.,  A. Dreuw,  B. D. Dunietz,  T. R. Furlani,  
 W. A. Goddard III,  S. Grimme,  S. Hammes-Schiffer,  T. Head-Gordon,  
 W. J. Hehre,  Chao-Ping Hsu,  T.-C. Jagau,  Yousung Jung,  A. Klamt,  
 Jing Kong,  D. S. Lambrecht,  Xiangyuan Li,  WanZhen Liang,  N. J. Mayhall,  
 C. W. McCurdy,  J. B. Neaton,  T. Neudecker,  C. Ochsenfeld,  
 J. A. Parkhill,  R. Peverati,  V. A. Rassolov,  Haisheng Ren,  Yihan Shao,  
 L. V. Slipchenko,  R. P. Steele,  J. E. Subotnik,  A. J. W. Thom,  
 A. Tkatchenko,  D. G. Truhlar,  T. Van Voorhis,  Fan Wang,  
 T. A. Wesolowski,  K. B. Whaley,  H. L. Woodcock III,  P. M. Zimmerman,  
 S. Faraji,  P. M. W. Gill,  M. Head-Gordon,  J. M. Herbert,  A. I. Krylov

 Contributors to earlier versions of Q-Chem not listed above: 
 R. D. Adamson,  B. Austin,  R. Baer,  J. Baker,  G. J. O. Beran,  
 K. Brandhorst,  S. T. Brown,  E. F. C. Byrd,  Arup K. Chakraborty,  
 G. K. L. Chan,  Chun-Min Chang,  Yunqing Chen,  C.-L. Cheng,  
 Siu Hung Chien,  D. M. Chipman,  D. L. Crittenden,  H. Dachsel,  
 R. J. Doerksen,  A. D. Dutoi,  R. G. Edgar,  J. Fosso-Tande,  
 L. Fusti-Molnar,  D. Ghosh,  A. Ghysels,  A. Golubeva-Zadorozhnaya,  
 J. Gonthier,  M. S. Gordon,  S. R. Gwaltney,  G. Hawkins,  J. E. Herr,  
 A. Heyden,  S. Hirata,  E. G. Hohenstein,  G. Kedziora,  F. J. Keil,  
 C. Kelley,  Jihan Kim,  R. A. King,  R. Z. Khaliullin,  P. P. Korambath,  
 W. Kurlancheek,  A. Laurent,  A. M. Lee,  M. S. Lee,  S. V. Levchenko,  
 Ching Yeh Lin,  D. Liotard,  E. Livshits,  R. C. Lochan,  I. Lotan,  
 L. A. Martinez-Martinez,  P. E. Maslen,  N. Nair,  D. P. O'Neill,  
 D. Neuhauser,  E. Neuscamman,  C. M. Oana,  R. Olivares-Amaya,  R. Olson,  
 T. M. Perrine,  B. Peters,  P. A. Pieniazek,  A. Prociuk,  Y. M. Rhee,  
 J. Ritchie,  M. A. Rohrdanz,  E. Rosta,  N. J. Russ,  H. F. Schaefer III,  
 M. W. Schmidt,  N. E. Schultz,  S. Sharma,  N. Shenvi,  C. D. Sherrill,  
 A. C. Simmonett,  A. Sodt,  T. Stein,  D. Stuck,  K. S. Thanthiriwatte,  
 V. Vanovschi,  L. Vogt,  Tao Wang,  A. Warshel,  M. A. Watson,  
 C. F. Williams,  Q. Wu,  X. Xu,  Jun Yang,  W. Zhang,  Yan Zhao

   Please cite Q-Chem as follows:
  "Software for the frontiers of quantum chemistry:
   An overview of developments in the Q-Chem 5 package"
   J. Chem. Phys. 155, 084801 (2021)
   https://doi.org/10.1063/5.0055522 (open access)

 Q-Chem 6.0.0 for Intel X86 EM64T Linux

 Parts of Q-Chem use Armadillo 9.900.5 (Nocturnal Misbehaviour).
 http://arma.sourceforge.net/

 Q-Chem begins on Tue Jul 11 08:35:15 2023  

 Host: 
0

     Scratch files written to /mnt/scratch/hwang/qchem982634//
 Processing $rem in /opt/qchem-6.0.0/config/preferences:
 Processing $rem in /home/hwang/.qchemrc:

 Checking the input file for inconsistencies... 	...done.

--------------------------------------------------------------
User input:
--------------------------------------------------------------
$comment
   ASE generated input file
$end

$rem
   METHOD                      PBE
   BASIS                       CC-PVDZ
   JOBTYPE                     FREQ
   DFT_D                       D3_BJ
   VIBMAN_PRINT                7
   SYM_IGNORE                  TRUE
$end

$molecule
   0 1
   C  1.029274  0.819001  -0.771810
   C  1.083242  0.794425  0.787302
   C  -0.483521  0.447195  -0.736554
   C  -0.373254  0.271741  0.828352
   C  -0.784716  -1.064328  -0.885289
   C  -0.518909  -1.267921  0.637830
   H  1.663799  0.062194  -1.277421
   H  1.253141  1.805922  -1.221068
   H  1.184783  1.809017  1.220954
   H  1.847699  0.140142  1.255755
   H  -1.174651  1.162275  -1.222715
   H  -1.070565  0.745722  1.545579
   H  -0.134050  -1.623786  -1.589295
   H  -1.839858  -1.261156  -1.160504
   H  0.403306  -1.834345  0.881863
   H  -1.359140  -1.727998  1.192909
$end

--------------------------------------------------------------
 Adding empirical dispersion correction 
 ----------------------------------------------------------------
 Doing -D3(BJ) with
 s6  =   1.00000
 s8  =   0.78750
 a1  =   0.42890
 a2  =   4.44070
 -D3 energy without 3body term =     -0.0134706355 hartrees
 ----------------------------------------------------------------
             Standard Nuclear Orientation (Angstroms)
    I     Atom           X                Y                Z
 ----------------------------------------------------------------
    1      C       1.0292740000     0.8190010000    -0.7718100000
    2      C       1.0832420000     0.7944250000     0.7873020000
    3      C      -0.4835210000     0.4471950000    -0.7365540000
    4      C      -0.3732540000     0.2717410000     0.8283520000
    5      C      -0.7847160000    -1.0643280000    -0.8852890000
    6      C      -0.5189090000    -1.2679210000     0.6378300000
    7      H       1.6637990000     0.0621940000    -1.2774210000
    8      H       1.2531410000     1.8059220000    -1.2210680000
    9      H       1.1847830000     1.8090170000     1.2209540000
   10      H       1.8476990000     0.1401420000     1.2557550000
   11      H      -1.1746510000     1.1622750000    -1.2227150000
   12      H      -1.0705650000     0.7457220000     1.5455790000
   13      H      -0.1340500000    -1.6237860000    -1.5892950000
   14      H      -1.8398580000    -1.2611560000    -1.1605040000
   15      H       0.4033060000    -1.8343450000     0.8818630000
   16      H      -1.3591400000    -1.7279980000     1.1929090000
 ----------------------------------------------------------------
 Nuclear Repulsion Energy =         242.10633115 hartrees
 There are       23 alpha and       23 beta electrons
 Requested basis set is cc-pVDZ
 There are 66 shells and 134 basis functions

 Total QAlloc Memory Limit   2000 MB
 Mega-Array Size       204 MB
 MEM_STATIC part       192 MB

 A cutoff of  1.0D-12 yielded   2199 shell pairs
 There are      9119 function pairs (      9974 Cartesian)
 Smallest overlap matrix eigenvalue = 1.08E-03
 Guess from superposition of atomic densities
 Warning:  Energy on first SCF cycle will be non-variational
 SAD guess density has 46.000000 electrons

 -----------------------------------------------------------------------
  General SCF calculation program by
  Eric Jon Sundstrom, Paul Horn, Yuezhi Mao, Dmitri Zuev, Alec White,
  David Stuck, Shaama M.S., Shane Yost, Joonho Lee, David Small,
  Daniel Levine, Susi Lehtola, Hugh Burton, Evgeny Epifanovsky,
  Bang C. Huynh
 -----------------------------------------------------------------------
 Exchange:  PBE      Correlation:  PBE
 Using SG-1 standard quadrature grid
 Dispersion:   Grimme D3
 using 4 threads for integral computing
 -------------------------------------------------------
 OpenMP Integral computing Module                
 Release: version 1.0, May 2013, Q-Chem Inc. Pittsburgh 
 -------------------------------------------------------
 A restricted SCF calculation will be
 performed using DIIS
 SCF converges when DIIS error is below 1.0e-08
 ---------------------------------------
  Cycle       Energy         DIIS error
 ---------------------------------------
    1    -235.1497728600      6.00e-02  
    2    -234.0889063788      8.76e-03  
    3    -233.7686355378      1.46e-02  
    4    -234.2917067275      1.19e-03  
    5    -234.2943344097      4.66e-04  
    6    -234.2947577769      1.63e-04  
    7    -234.2948166735      2.57e-05  
    8    -234.2948184147      5.35e-06  
    9    -234.2948184885      1.24e-06  
   10    -234.2948184914      5.74e-07  
   11    -234.2948184922      8.91e-08  
   12    -234.2948184922      8.57e-09  Convergence criterion met
 ---------------------------------------
 SCF time:   CPU 17.26s  wall 5.00s 
 SCF   energy in the final basis set =     -234.2948184922
 Total energy in the final basis set =     -234.2948184922

 --------------------------------------------------------------

                    Orbital Energies (a.u.)
 --------------------------------------------------------------

 Alpha MOs
 -- Occupied --
 -9.8936  -9.8936  -9.8911  -9.8910  -9.8906  -9.8906  -0.7885  -0.6731
 -0.6045  -0.5501  -0.5272  -0.4455  -0.4417  -0.4037  -0.3933  -0.3586
 -0.3308  -0.3003  -0.2966  -0.2823  -0.2551  -0.2386  -0.2287
 -- Virtual --
  0.0308   0.0464   0.0582   0.0695   0.0886   0.0897   0.1066   0.1150
  0.1154   0.1439   0.1605   0.1704   0.1805   0.1859   0.2205   0.3023
  0.3199   0.3368   0.3783   0.4007   0.4273   0.4470   0.4517   0.4755
  0.4762   0.4985   0.4998   0.5285   0.5329   0.5588   0.5631   0.5983
  0.6001   0.6093   0.6230   0.6248   0.6303   0.6367   0.6476   0.6661
  0.6687   0.6729   0.6909   0.7417   0.7653   0.9436   1.0140   1.0445
  1.0541   1.0866   1.1158   1.1311   1.1512   1.2208   1.2789   1.3103
  1.3598   1.3612   1.3690   1.3935   1.4311   1.4467   1.4584   1.4913
  1.5346   1.5684   1.5694   1.5845   1.5875   1.6020   1.6099   1.6133
  1.6362   1.6455   1.6585   1.6648   1.6949   1.7124   1.7589   1.7803
  1.8092   1.8121   1.8550   1.8686   1.8700   1.9180   1.9342   1.9441
  1.9994   2.0190   2.0226   2.0333   2.0428   2.0673   2.1096   2.1140
  2.1535   2.1716   2.2818   2.3166   2.3367   2.3441   2.3803   2.4083
  2.4342   2.4421   2.5219   2.5751   2.6418   2.6937   2.9660
 --------------------------------------------------------------

          Ground-State Mulliken Net Atomic Charges

     Atom                 Charge (a.u.)
  ----------------------------------------
      1 C                     0.022759
      2 C                     0.037393
      3 C                    -0.084795
      4 C                    -0.083859
      5 C                     0.037709
      6 C                     0.023277
      7 H                     0.011349
      8 H                     0.018465
      9 H                     0.017167
     10 H                     0.010362
     11 H                    -0.033486
     12 H                    -0.033732
     13 H                     0.010318
     14 H                     0.017377
     15 H                     0.011361
     16 H                     0.018333
  ----------------------------------------
  Sum of atomic charges =     0.000000

 -----------------------------------------------------------------
                    Cartesian Multipole Moments
 -----------------------------------------------------------------
    Charge (ESU x 10^10)
                 0.0000
    Dipole Moment (Debye)
         X      -0.0983      Y       0.0853      Z       0.0163
       Tot       0.1311
    Quadrupole Moments (Debye-Ang)
        XX     -38.2819     XY      -0.1593     YY     -38.2888
        XZ      -0.1926     YZ      -0.0228     ZZ     -39.2162
    Octopole Moments (Debye-Ang^2)
       XXX      -3.6958    XXY      -0.9196    XYY       0.2977
       YYY       4.8984    XXZ       1.1656    XYZ       0.3046
       YYZ       1.0072    XZZ      -0.8206    YZZ       0.9229
       ZZZ       3.3136
    Hexadecapole Moments (Debye-Ang^3)
      XXXX    -229.8970   XXXY     -60.8074   XXYY     -81.0768
      XYYY     -59.7683   YYYY    -264.4511   XXXZ      -9.0175
      XXYZ      -1.1221   XYYZ      -3.8999   YYYZ      -1.5935
      XXZZ     -75.3988   XYZZ     -21.1772   YYZZ     -81.0899
      XZZZ     -11.2188   YZZZ      -0.2215   ZZZZ    -235.7250
 -----------------------------------------------------------------
 Calculating MO derivatives via CPSCF
    1     0    51    0.0254969  
    2     0    51    0.0024206  
    3     0    51    0.0001771  
    4    48     3    0.0000025  
    5    51     0    0.0000000  Converged
 ------------------------------------------------------------------------------
                     AOints        : Timing summary (seconds)
 ------------------------------------------------------------------------------
     job step          cpu (% of tot)      sys (% of tot)     wall (% of tot)
 ------------------------------------------------------------------------------
  AOints            0.3752E+01 ( 2.7)   0.1000E-05 ( 2.9)   0.9470E+00 ( 2.7)
 ------------------------------------------------------------------------------
   Grand Totals     0.1413E+03          0.3400E-04          0.3546E+02
 ------------------------------------------------------------------------------
 Polarizability Matrix (a.u.)
            1           2           3
    1 -62.5712119  -4.8416982  -0.8165008
    2  -4.8416982 -63.9516736  -0.1316242
    3  -0.8165008  -0.1316242 -62.4654045
 Calculating analytic Hessian of the SCF energy

 Direct stationary perturbation theory relativistic correction:

 rels  =       0.050878198166
 relv  =      -0.258802377148
 rel2e =       0.000000000000
 E_rel =      -0.207924178981


 Mass-Weighted Hessian Matrix:


     0.035619   -0.002003   -0.007992   -0.003039    0.000919   -0.000905
    -0.002003    0.047383   -0.001716    0.000800   -0.006009    0.000188
    -0.007992   -0.001716    0.036483    0.000077    0.000044   -0.014178
    -0.003039    0.000800    0.000077    0.038263   -0.003894    0.007748
     0.000919   -0.006009    0.000044   -0.003894    0.046134    0.002320
    -0.000905    0.000188   -0.014178    0.007748    0.002320    0.035377
    -0.013727   -0.001637   -0.000213   -0.003442   -0.000218   -0.002328
    -0.001444   -0.006750    0.000159   -0.000972    0.000778   -0.000243
     0.000552    0.000145   -0.002846   -0.002584   -0.000247   -0.003314
    -0.002996   -0.000751    0.002335   -0.013972   -0.002650    0.001092
    -0.001053    0.000595    0.000743   -0.002314   -0.006958   -0.000295
     0.002416    0.001136   -0.003720    0.000252   -0.000280   -0.002928
    -0.000532   -0.002291   -0.000434   -0.000051    0.000123    0.000120
    -0.000520   -0.000494   -0.000242   -0.000122   -0.000059   -0.000072
     0.000033    0.000278    0.000088   -0.000113    0.000094   -0.000090
    -0.000008    0.000113   -0.000103   -0.000096   -0.002322   -0.000071
    -0.000070   -0.000013    0.000054   -0.000422   -0.000943   -0.000007
     0.000048   -0.000095   -0.000025   -0.000210   -0.000193    0.000052
    -0.034942    0.029077    0.018225    0.000666   -0.001679   -0.001002
     0.029059   -0.047663   -0.022805   -0.000512   -0.000147    0.000548
     0.017948   -0.022757   -0.026462    0.003803   -0.006098   -0.002449
    -0.014858   -0.012883    0.005228   -0.000169    0.001724   -0.000117
    -0.012988   -0.073166    0.026728    0.000240    0.000720   -0.000973
     0.005322    0.026669   -0.022866    0.001193    0.007096   -0.002978
    -0.000243    0.001214    0.000315   -0.012536   -0.004972   -0.002415
     0.000201    0.000864    0.000918   -0.005196   -0.075381   -0.026215
    -0.000182   -0.007599   -0.003662   -0.002459   -0.026131   -0.021789
     0.000570   -0.001273    0.000598   -0.045746    0.030264   -0.019794
    -0.000484   -0.000352   -0.000696    0.030452   -0.039122    0.018520
    -0.004497    0.004973   -0.001689   -0.019477    0.018325   -0.024663
    -0.003436    0.004810   -0.002815   -0.000709   -0.000147   -0.000330
    -0.001886    0.001314   -0.000955   -0.000247   -0.000248   -0.000215
     0.000866   -0.001460    0.000502   -0.000306    0.000130   -0.000455
    -0.000676   -0.000503    0.000380   -0.002856    0.003440    0.004354
    -0.000563   -0.000185    0.000464   -0.002074    0.000863    0.001787
     0.000425    0.000014   -0.000585   -0.000709    0.001100    0.000662
     0.000499   -0.000317   -0.000209    0.000019   -0.000011   -0.000118
     0.000674    0.000598    0.000109    0.000033    0.000210   -0.000081
    -0.000002   -0.000076    0.000143    0.000040   -0.000138   -0.000012
     0.000276   -0.000328    0.000115   -0.000014   -0.000003   -0.000047
     0.000196   -0.001456   -0.000324    0.000006    0.000119    0.000157
     0.000408    0.000365    0.000023    0.000087    0.000042   -0.000012
    -0.000012    0.000026    0.000050    0.000399   -0.000522    0.000151
     0.000116    0.000051   -0.000042    0.000631    0.000500   -0.000016
    -0.000055    0.000119    0.000110    0.000216    0.000319    0.000294
    -0.000031    0.000085   -0.000042   -0.000001   -0.000345   -0.000197
     0.000071    0.000213   -0.000090    0.000557   -0.001191   -0.000036
    -0.000053   -0.000025   -0.000039   -0.000228   -0.000643   -0.000079


    -0.013727   -0.001444    0.000552   -0.002996   -0.001053    0.002416
    -0.001637   -0.006750    0.000145   -0.000751    0.000595    0.001136
    -0.000213    0.000159   -0.002846    0.002335    0.000743   -0.003720
    -0.003442   -0.000972   -0.002584   -0.013972   -0.002314    0.000252
    -0.000218    0.000778   -0.000247   -0.002650   -0.006958   -0.000280
    -0.002328   -0.000243   -0.003314    0.001092   -0.000295   -0.002928
     0.040001   -0.005234    0.007949   -0.003252    0.001252    0.000172
    -0.005234    0.041581   -0.007025    0.001230   -0.002881    0.000185
     0.007949   -0.007025    0.032705   -0.001177    0.001339   -0.011673
    -0.003252    0.001230   -0.001177    0.039569   -0.002016   -0.009907
     0.001252   -0.002881    0.001339   -0.002016    0.035534    0.007767
     0.000172    0.000185   -0.011673   -0.009907    0.007767    0.038513
    -0.006583   -0.001482    0.000097    0.000714    0.000045   -0.000647
    -0.001300   -0.014483   -0.001635   -0.000721   -0.002725   -0.002345
    -0.000003   -0.000746   -0.002992   -0.000812   -0.002249   -0.003980
     0.000854    0.000241   -0.000011   -0.006263   -0.000650    0.000542
     0.000048   -0.004082    0.002663   -0.000385   -0.013666   -0.001247
    -0.000437    0.002461   -0.003018    0.000685   -0.001965   -0.003157
    -0.004479    0.005013    0.003249   -0.000839   -0.000086    0.000282
    -0.001579    0.001216    0.000958   -0.000079   -0.000279    0.000295
    -0.000470    0.001310   -0.000104    0.000418    0.000071   -0.000186
    -0.000735   -0.007568    0.002407   -0.000320    0.000307    0.000373
     0.000734   -0.001220    0.000270   -0.000058    0.000096    0.000002
     0.000072   -0.001468    0.000217    0.000181   -0.000239   -0.001053
    -0.000092    0.000474   -0.000144   -0.000390   -0.007936   -0.002553
    -0.000022   -0.000087   -0.000025    0.000530   -0.002623   -0.000765
     0.000036    0.000246   -0.000601    0.000062    0.001905    0.000524
    -0.001123   -0.000150   -0.000266   -0.004196    0.004611   -0.003051
    -0.000416   -0.000113   -0.000609   -0.002195    0.001608   -0.001181
    -0.000596   -0.000069   -0.000376    0.000520   -0.001452   -0.000029
    -0.041565    0.030871   -0.020129    0.000304   -0.001125    0.000470
     0.030866   -0.043356    0.020360   -0.000923   -0.000127   -0.000259
    -0.020548    0.020662   -0.027510   -0.004246    0.004118    0.000305
     0.000986   -0.001506   -0.000698   -0.042371    0.020999    0.029653
    -0.001755    0.000467    0.000796    0.020991   -0.025840   -0.020446
     0.004303   -0.003229   -0.000951    0.030045   -0.020827   -0.044292
     0.000674   -0.001227   -0.001100   -0.000172   -0.000273   -0.000665
     0.004713   -0.003149   -0.004693   -0.000067   -0.001012   -0.000455
    -0.000948   -0.000059   -0.000240   -0.000045   -0.000647   -0.000424
    -0.001198    0.000412    0.000011   -0.000111    0.000011   -0.000080
    -0.008659   -0.001273   -0.001260    0.000403   -0.000009   -0.000136
     0.000789   -0.000000   -0.000002    0.000207    0.000198   -0.000660
    -0.000213    0.000055    0.000249    0.001024   -0.000900    0.000127
     0.000090   -0.000970    0.000219    0.006240   -0.003780    0.001571
    -0.000003    0.000307   -0.000147    0.002156   -0.000819   -0.000204
    -0.000047    0.000061   -0.000230   -0.000548    0.000736    0.000190
     0.000487   -0.000389    0.000408   -0.006577   -0.002193    0.003378
    -0.000370    0.000275   -0.000865   -0.002437   -0.000732    0.000969


    -0.000532   -0.000520    0.000033   -0.000008   -0.000070    0.000048
    -0.002291   -0.000494    0.000278    0.000113   -0.000013   -0.000095
    -0.000434   -0.000242    0.000088   -0.000103    0.000054   -0.000025
    -0.000051   -0.000122   -0.000113   -0.000096   -0.000422   -0.000210
     0.000123   -0.000059    0.000094   -0.002322   -0.000943   -0.000193
     0.000120   -0.000072   -0.000090   -0.000071   -0.000007    0.000052
    -0.006583   -0.001300   -0.000003    0.000854    0.000048   -0.000437
    -0.001482   -0.014483   -0.000746    0.000241   -0.004082    0.002461
     0.000097   -0.001635   -0.002992   -0.000011    0.002663   -0.003018
     0.000714   -0.000721   -0.000812   -0.006263   -0.000385    0.000685
     0.000045   -0.002725   -0.002249   -0.000650   -0.013666   -0.001965
    -0.000647   -0.002345   -0.003980    0.000542   -0.001247   -0.003157
     0.047049   -0.000929   -0.001102   -0.006349    0.000594   -0.001424
    -0.000929    0.034443    0.008475    0.000581   -0.002938    0.001736
    -0.001102    0.008475    0.038131   -0.001187    0.000821   -0.013751
    -0.006349    0.000581   -0.001187    0.047067   -0.001430   -0.002832
     0.000594   -0.002938    0.000821   -0.001430    0.037812   -0.007803
    -0.001424    0.001736   -0.013751   -0.002832   -0.007803    0.034478
     0.000690    0.000801    0.000006    0.000009    0.000090    0.000041
    -0.000455    0.000430    0.000244   -0.000001    0.000011    0.000049
     0.000035    0.000059    0.000311    0.000179   -0.000058    0.000029
    -0.001275    0.000284    0.000273    0.000157    0.000105   -0.000106
    -0.000472    0.000094   -0.000082    0.000109    0.000017   -0.000067
    -0.000464   -0.000374   -0.000081   -0.000039   -0.000069   -0.000037
     0.000149    0.000016    0.000135   -0.001360    0.000051   -0.000066
     0.000013   -0.000022   -0.000023   -0.000624    0.000105    0.000194
     0.000003    0.000092   -0.000032    0.000474    0.000477    0.000091
     0.000160    0.000072   -0.000077    0.000530    0.000642    0.000182
     0.000019    0.000040   -0.000122   -0.000328    0.000576   -0.000053
    -0.000171    0.000008    0.000020   -0.000229   -0.000072    0.000116
     0.001045   -0.001809    0.000810    0.000003   -0.000425    0.000221
     0.004478   -0.003036    0.003174   -0.000295   -0.000987    0.000454
     0.001886   -0.000792    0.000695   -0.000206    0.000464   -0.000474
    -0.000209   -0.000189   -0.000249    0.000406   -0.001045   -0.000726
    -0.000157   -0.000644   -0.000353    0.004948   -0.002299   -0.004427
     0.000106   -0.000261   -0.000532   -0.000772    0.000327    0.000291
    -0.038753    0.022224    0.027906    0.000765   -0.001050   -0.001476
     0.022063   -0.030028   -0.021894   -0.002059    0.000706    0.001279
     0.027714   -0.021615   -0.040568    0.004810   -0.003071   -0.002952
    -0.080359   -0.011979   -0.016575   -0.000761    0.000027    0.000298
    -0.011949   -0.014028   -0.003573    0.002785    0.000100    0.000599
    -0.016443   -0.003412   -0.015424   -0.007683   -0.000954   -0.002404
    -0.001030   -0.000068    0.000421   -0.064154    0.030929   -0.012936
    -0.000688   -0.000014   -0.000412    0.030926   -0.029897    0.007597
    -0.007164    0.003123   -0.000824   -0.012768    0.007355   -0.015235
     0.001409    0.001037   -0.001661   -0.057072   -0.023578    0.028955
     0.000747   -0.000223    0.000014   -0.023502   -0.024129    0.014592
     0.006196    0.002752   -0.003621    0.028871    0.014648   -0.029731


    -0.034942    0.029059    0.017948   -0.014858   -0.012988    0.005322
     0.029077   -0.047663   -0.022757   -0.012883   -0.073166    0.026669
     0.018225   -0.022805   -0.026462    0.005228    0.026728   -0.022866
     0.000666   -0.000512    0.003803   -0.000169    0.000240    0.001193
    -0.001679   -0.000147   -0.006098    0.001724    0.000720    0.007096
    -0.001002    0.000548   -0.002449   -0.000117   -0.000973   -0.002978
    -0.004479   -0.001579   -0.000470   -0.000735    0.000734    0.000072
     0.005013    0.001216    0.001310   -0.007568   -0.001220   -0.001468
     0.003249    0.000958   -0.000104    0.002407    0.000270    0.000217
    -0.000839   -0.000079    0.000418   -0.000320   -0.000058    0.000181
    -0.000086   -0.000279    0.000071    0.000307    0.000096   -0.000239
     0.000282    0.000295   -0.000186    0.000373    0.000002   -0.001053
     0.000690   -0.000455    0.000035   -0.001275   -0.000472   -0.000464
     0.000801    0.000430    0.000059    0.000284    0.000094   -0.000374
     0.000006    0.000244    0.000311    0.000273   -0.000082   -0.000081
     0.000009   -0.000001    0.000179    0.000157    0.000109   -0.000039
     0.000090    0.000011   -0.000058    0.000105    0.000017   -0.000069
     0.000041    0.000049    0.000029   -0.000106   -0.000067   -0.000037
     0.132111   -0.106424   -0.069453    0.003470   -0.004570   -0.002460
    -0.106424    0.175051    0.084032    0.015426   -0.017255   -0.012108
    -0.069453    0.084032    0.098277   -0.006645    0.008534    0.005295
     0.003470    0.015426   -0.006645    0.053212    0.048295   -0.020840
    -0.004570   -0.017255    0.008534    0.048295    0.267552   -0.098078
    -0.002460   -0.012108    0.005295   -0.020840   -0.098078    0.087263
    -0.000046   -0.000191    0.001331    0.001264   -0.000035   -0.000632
    -0.000572    0.000811    0.000587   -0.000067    0.001731    0.000045
    -0.001900   -0.000376   -0.004681    0.000888   -0.000042    0.002281
     0.000765    0.000051   -0.000512   -0.000244   -0.000514    0.001272
    -0.000014    0.001297   -0.000185   -0.000002    0.000429    0.000653
     0.000474    0.000025    0.002038   -0.001375   -0.000140   -0.003578
    -0.003113   -0.000526   -0.001214    0.001955    0.000053    0.000549
    -0.000786    0.000146   -0.000243    0.000257    0.001175    0.000111
     0.001601   -0.000258   -0.000552   -0.000775   -0.000201    0.000939
     0.000180   -0.000016    0.000712   -0.000115    0.000069    0.000973
    -0.000442   -0.000064    0.000506   -0.000335   -0.000129    0.000434
     0.001004    0.000196   -0.000425    0.000755    0.000095   -0.000049
     0.000299    0.000779    0.000354    0.000055   -0.000090   -0.000075
    -0.001520    0.000550    0.000428    0.000144    0.000314    0.000282
    -0.000848   -0.000398    0.000092   -0.000344    0.000218    0.000085
     0.000517   -0.000149   -0.000176   -0.000322   -0.000250   -0.000366
     0.000249    0.000026    0.000294   -0.001429   -0.000413   -0.000450
    -0.000390    0.000124    0.000061    0.000194    0.000323    0.000202
    -0.000014   -0.000136    0.000082    0.000031   -0.000030   -0.000060
    -0.000425   -0.000313    0.000594   -0.000176    0.000042   -0.000057
     0.000258    0.000304   -0.000620    0.000255   -0.000050    0.000050
     0.000046   -0.000023   -0.000090    0.000043   -0.000022    0.000021
    -0.000112   -0.000031    0.000255    0.000104    0.000035    0.000075
    -0.000065   -0.000076    0.000106    0.000081    0.000048   -0.000019


    -0.000243    0.000201   -0.000182    0.000570   -0.000484   -0.004497
     0.001214    0.000864   -0.007599   -0.001273   -0.000352    0.004973
     0.000315    0.000918   -0.003662    0.000598   -0.000696   -0.001689
    -0.012536   -0.005196   -0.002459   -0.045746    0.030452   -0.019477
    -0.004972   -0.075381   -0.026131    0.030264   -0.039122    0.018325
    -0.002415   -0.026215   -0.021789   -0.019794    0.018520   -0.024663
    -0.000092   -0.000022    0.000036   -0.001123   -0.000416   -0.000596
     0.000474   -0.000087    0.000246   -0.000150   -0.000113   -0.000069
    -0.000144   -0.000025   -0.000601   -0.000266   -0.000609   -0.000376
    -0.000390    0.000530    0.000062   -0.004196   -0.002195    0.000520
    -0.007936   -0.002623    0.001905    0.004611    0.001608   -0.001452
    -0.002553   -0.000765    0.000524   -0.003051   -0.001181   -0.000029
     0.000149    0.000013    0.000003    0.000160    0.000019   -0.000171
     0.000016   -0.000022    0.000092    0.000072    0.000040    0.000008
     0.000135   -0.000023   -0.000032   -0.000077   -0.000122    0.000020
    -0.001360   -0.000624    0.000474    0.000530   -0.000328   -0.000229
     0.000051    0.000105    0.000477    0.000642    0.000576   -0.000072
    -0.000066    0.000194    0.000091    0.000182   -0.000053    0.000116
    -0.000046   -0.000572   -0.001900    0.000765   -0.000014    0.000474
    -0.000191    0.000811   -0.000376    0.000051    0.001297    0.000025
     0.001331    0.000587   -0.004681   -0.000512   -0.000185    0.002038
     0.001264   -0.000067    0.000888   -0.000244   -0.000002   -0.001375
    -0.000035    0.001731   -0.000042   -0.000514    0.000429   -0.000140
    -0.000632    0.000045    0.002281    0.001272    0.000653   -0.003578
     0.045077    0.020993    0.008041    0.002063    0.018615    0.007805
     0.020993    0.277464    0.096427   -0.002303   -0.015100   -0.007093
     0.008041    0.096427    0.084544    0.000925    0.011277    0.004622
     0.002063   -0.002303    0.000925    0.170405   -0.112326    0.077574
     0.018615   -0.015100    0.011277   -0.112326    0.142070   -0.066646
     0.007805   -0.007093    0.004622    0.077574   -0.066646    0.089511
    -0.000229   -0.000018   -0.000635   -0.000098   -0.000163   -0.000972
    -0.000162    0.000040   -0.000294   -0.000254   -0.000079   -0.000295
    -0.000505   -0.000215   -0.000045   -0.001193   -0.000362   -0.000305
     0.001819    0.000226   -0.000553   -0.002198   -0.000408    0.000889
     0.000272    0.001187   -0.000084   -0.000467   -0.000107    0.000405
     0.000823    0.000415    0.000810   -0.001026    0.000209   -0.000387
     0.000079    0.000031    0.000057   -0.000058   -0.000015    0.000030
     0.000020    0.000003    0.000117   -0.000340   -0.000114   -0.000003
    -0.000310   -0.000099    0.000161   -0.000072    0.000040   -0.000111
    -0.000021   -0.000067   -0.000134    0.000013    0.000038   -0.000020
     0.000203    0.000037   -0.000093   -0.000071    0.000129   -0.000316
    -0.000019   -0.000148    0.000083    0.000130    0.000064    0.000104
     0.000117   -0.000272    0.000126    0.000807    0.001040   -0.000222
     0.000047    0.000574   -0.000297   -0.001747    0.000273   -0.000544
     0.000320    0.000010   -0.000096   -0.000032    0.000230    0.000033
    -0.000182   -0.000365    0.000311    0.000403   -0.000097    0.000188
    -0.001270   -0.000553    0.000374    0.000078    0.000124   -0.000321
    -0.000540   -0.000502    0.000206    0.000253    0.000002   -0.000068


    -0.003436   -0.001886    0.000866   -0.000676   -0.000563    0.000425
     0.004810    0.001314   -0.001460   -0.000503   -0.000185    0.000014
    -0.002815   -0.000955    0.000502    0.000380    0.000464   -0.000585
    -0.000709   -0.000247   -0.000306   -0.002856   -0.002074   -0.000709
    -0.000147   -0.000248    0.000130    0.003440    0.000863    0.001100
    -0.000330   -0.000215   -0.000455    0.004354    0.001787    0.000662
    -0.041565    0.030866   -0.020548    0.000986   -0.001755    0.004303
     0.030871   -0.043356    0.020662   -0.001506    0.000467   -0.003229
    -0.020129    0.020360   -0.027510   -0.000698    0.000796   -0.000951
     0.000304   -0.000923   -0.004246   -0.042371    0.020991    0.030045
    -0.001125   -0.000127    0.004118    0.020999   -0.025840   -0.020827
     0.000470   -0.000259    0.000305    0.029653   -0.020446   -0.044292
     0.001045    0.004478    0.001886   -0.000209   -0.000157    0.000106
    -0.001809   -0.003036   -0.000792   -0.000189   -0.000644   -0.000261
     0.000810    0.003174    0.000695   -0.000249   -0.000353   -0.000532
     0.000003   -0.000295   -0.000206    0.000406    0.004948   -0.000772
    -0.000425   -0.000987    0.000464   -0.001045   -0.002299    0.000327
     0.000221    0.000454   -0.000474   -0.000726   -0.004427    0.000291
    -0.003113   -0.000786    0.001601    0.000180   -0.000442    0.001004
    -0.000526    0.000146   -0.000258   -0.000016   -0.000064    0.000196
    -0.001214   -0.000243   -0.000552    0.000712    0.000506   -0.000425
     0.001955    0.000257   -0.000775   -0.000115   -0.000335    0.000755
     0.000053    0.001175   -0.000201    0.000069   -0.000129    0.000095
     0.000549    0.000111    0.000939    0.000973    0.000434   -0.000049
    -0.000229   -0.000162   -0.000505    0.001819    0.000272    0.000823
    -0.000018    0.000040   -0.000215    0.000226    0.001187    0.000415
    -0.000635   -0.000294   -0.000045   -0.000553   -0.000084    0.000810
    -0.000098   -0.000254   -0.001193   -0.002198   -0.000467   -0.001026
    -0.000163   -0.000079   -0.000362   -0.000408   -0.000107    0.000209
    -0.000972   -0.000295   -0.000305    0.000889    0.000405   -0.000387
     0.152693   -0.109961    0.077346    0.000600    0.000220   -0.000546
    -0.109961    0.159442   -0.079580    0.000147    0.000639    0.000446
     0.077346   -0.079580    0.090107    0.000860   -0.000825    0.002427
     0.000600    0.000147    0.000860    0.152887   -0.072586   -0.115018
     0.000220    0.000639   -0.000825   -0.072586    0.095100    0.078759
    -0.000546    0.000446    0.002427   -0.115018    0.078759    0.154521
     0.000066    0.000044    0.000277   -0.000098   -0.000300   -0.000291
    -0.000358   -0.002251   -0.001245   -0.000436    0.000188   -0.001098
     0.000126    0.000658   -0.000532   -0.000268   -0.000890   -0.000567
     0.001147   -0.000069    0.000224   -0.000017   -0.000088   -0.000178
     0.000276    0.001789    0.001001   -0.000183   -0.000037   -0.000503
    -0.000047   -0.000396    0.000909   -0.000216   -0.000632   -0.000128
     0.000075    0.000117   -0.000033    0.000120   -0.000166   -0.000666
    -0.000310   -0.000203    0.001131    0.000026   -0.003237    0.001119
     0.000256    0.000807   -0.000178   -0.000205   -0.001673   -0.000433
    -0.000033    0.000275    0.000023    0.001136    0.000087   -0.000101
    -0.000236   -0.000451    0.000766    0.000019    0.001830   -0.000700
     0.000265    0.000942    0.000181   -0.000053    0.000529    0.000917


     0.000499    0.000674   -0.000002    0.000276    0.000196    0.000408
    -0.000317    0.000598   -0.000076   -0.000328   -0.001456    0.000365
    -0.000209    0.000109    0.000143    0.000115   -0.000324    0.000023
     0.000019    0.000033    0.000040   -0.000014    0.000006    0.000087
    -0.000011    0.000210   -0.000138   -0.000003    0.000119    0.000042
    -0.000118   -0.000081   -0.000012   -0.000047    0.000157   -0.000012
     0.000674    0.004713   -0.000948   -0.001198   -0.008659    0.000789
    -0.001227   -0.003149   -0.000059    0.000412   -0.001273   -0.000000
    -0.001100   -0.004693   -0.000240    0.000011   -0.001260   -0.000002
    -0.000172   -0.000067   -0.000045   -0.000111    0.000403    0.000207
    -0.000273   -0.001012   -0.000647    0.000011   -0.000009    0.000198
    -0.000665   -0.000455   -0.000424   -0.000080   -0.000136   -0.000660
    -0.038753    0.022063    0.027714   -0.080359   -0.011949   -0.016443
     0.022224   -0.030028   -0.021615   -0.011979   -0.014028   -0.003412
     0.027906   -0.021894   -0.040568   -0.016575   -0.003573   -0.015424
     0.000765   -0.002059    0.004810   -0.000761    0.002785   -0.007683
    -0.001050    0.000706   -0.003071    0.000027    0.000100   -0.000954
    -0.001476    0.001279   -0.002952    0.000298    0.000599   -0.002404
     0.000299   -0.001520   -0.000848    0.000517    0.000249   -0.000390
     0.000779    0.000550   -0.000398   -0.000149    0.000026    0.000124
     0.000354    0.000428    0.000092   -0.000176    0.000294    0.000061
     0.000055    0.000144   -0.000344   -0.000322   -0.001429    0.000194
    -0.000090    0.000314    0.000218   -0.000250   -0.000413    0.000323
    -0.000075    0.000282    0.000085   -0.000366   -0.000450    0.000202
     0.000079    0.000020   -0.000310   -0.000021    0.000203   -0.000019
     0.000031    0.000003   -0.000099   -0.000067    0.000037   -0.000148
     0.000057    0.000117    0.000161   -0.000134   -0.000093    0.000083
    -0.000058   -0.000340   -0.000072    0.000013   -0.000071    0.000130
    -0.000015   -0.000114    0.000040    0.000038    0.000129    0.000064
     0.000030   -0.000003   -0.000111   -0.000020   -0.000316    0.000104
     0.000066   -0.000358    0.000126    0.001147    0.000276   -0.000047
     0.000044   -0.002251    0.000658   -0.000069    0.001789   -0.000396
     0.000277   -0.001245   -0.000532    0.000224    0.001001    0.000909
    -0.000098   -0.000436   -0.000268   -0.000017   -0.000183   -0.000216
    -0.000300    0.000188   -0.000890   -0.000088   -0.000037   -0.000632
    -0.000291   -0.001098   -0.000567   -0.000178   -0.000503   -0.000128
     0.141158   -0.081379   -0.101812   -0.015677    0.014307    0.017520
    -0.081379    0.110845    0.085911   -0.003660    0.002816    0.003286
    -0.101812    0.085911    0.149694   -0.004816    0.003495    0.004473
    -0.015677   -0.003660   -0.004816    0.295352    0.045768    0.062127
     0.014307    0.002816    0.003495    0.045768    0.051797    0.010891
     0.017520    0.003286    0.004473    0.062127    0.010891    0.060235
     0.001301    0.000048    0.000144    0.000747    0.000419   -0.001133
    -0.000020    0.000793    0.000275   -0.000691   -0.000173   -0.001107
     0.000285   -0.000768    0.002132   -0.000789    0.002138   -0.004530
     0.000438   -0.000020   -0.000739    0.001787   -0.000122   -0.000059
    -0.000110   -0.000396   -0.000850    0.000095    0.001128    0.000576
    -0.000324    0.001895   -0.003414    0.000297   -0.000802    0.002354


    -0.000012    0.000116   -0.000055   -0.000031    0.000071   -0.000053
     0.000026    0.000051    0.000119    0.000085    0.000213   -0.000025
     0.000050   -0.000042    0.000110   -0.000042   -0.000090   -0.000039
     0.000399    0.000631    0.000216   -0.000001    0.000557   -0.000228
    -0.000522    0.000500    0.000319   -0.000345   -0.001191   -0.000643
     0.000151   -0.000016    0.000294   -0.000197   -0.000036   -0.000079
    -0.000213    0.000090   -0.000003   -0.000047    0.000487   -0.000370
     0.000055   -0.000970    0.000307    0.000061   -0.000389    0.000275
     0.000249    0.000219   -0.000147   -0.000230    0.000408   -0.000865
     0.001024    0.006240    0.002156   -0.000548   -0.006577   -0.002437
    -0.000900   -0.003780   -0.000819    0.000736   -0.002193   -0.000732
     0.000127    0.001571   -0.000204    0.000190    0.003378    0.000969
    -0.001030   -0.000688   -0.007164    0.001409    0.000747    0.006196
    -0.000068   -0.000014    0.003123    0.001037   -0.000223    0.002752
     0.000421   -0.000412   -0.000824   -0.001661    0.000014   -0.003621
    -0.064154    0.030926   -0.012768   -0.057072   -0.023502    0.028871
     0.030929   -0.029897    0.007355   -0.023578   -0.024129    0.014648
    -0.012936    0.007597   -0.015235    0.028955    0.014592   -0.029731
    -0.000014   -0.000425    0.000258    0.000046   -0.000112   -0.000065
    -0.000136   -0.000313    0.000304   -0.000023   -0.000031   -0.000076
     0.000082    0.000594   -0.000620   -0.000090    0.000255    0.000106
     0.000031   -0.000176    0.000255    0.000043    0.000104    0.000081
    -0.000030    0.000042   -0.000050   -0.000022    0.000035    0.000048
    -0.000060   -0.000057    0.000050    0.000021    0.000075   -0.000019
     0.000117    0.000047    0.000320   -0.000182   -0.001270   -0.000540
    -0.000272    0.000574    0.000010   -0.000365   -0.000553   -0.000502
     0.000126   -0.000297   -0.000096    0.000311    0.000374    0.000206
     0.000807   -0.001747   -0.000032    0.000403    0.000078    0.000253
     0.001040    0.000273    0.000230   -0.000097    0.000124    0.000002
    -0.000222   -0.000544    0.000033    0.000188   -0.000321   -0.000068
     0.000075   -0.000310    0.000256   -0.000033   -0.000236    0.000265
     0.000117   -0.000203    0.000807    0.000275   -0.000451    0.000942
    -0.000033    0.001131   -0.000178    0.000023    0.000766    0.000181
     0.000120    0.000026   -0.000205    0.001136    0.000019   -0.000053
    -0.000166   -0.003237   -0.001673    0.000087    0.001830    0.000529
    -0.000666    0.001119   -0.000433   -0.000101   -0.000700    0.000917
     0.001301   -0.000020    0.000285    0.000438   -0.000110   -0.000324
     0.000048    0.000793   -0.000768   -0.000020   -0.000396    0.001895
     0.000144    0.000275    0.002132   -0.000739   -0.000850   -0.003414
     0.000747   -0.000691   -0.000789    0.001787    0.000095    0.000297
     0.000419   -0.000173    0.002138   -0.000122    0.001128   -0.000802
    -0.001133   -0.001107   -0.004530   -0.000059    0.000576    0.002354
     0.235487   -0.114885    0.048087   -0.017878    0.012002   -0.005132
    -0.114885    0.113686   -0.029523   -0.010578    0.006261   -0.002358
     0.048087   -0.029523    0.055671    0.012357   -0.007374    0.003203
    -0.017878   -0.010578    0.012357    0.208469    0.086794   -0.105125
     0.012002    0.006261   -0.007374    0.086794    0.088368   -0.055836
    -0.005132   -0.002358    0.003203   -0.105125   -0.055836    0.111671

 Vectors for Translations and Rotations


     0.382364    0.000000    0.000000   -0.244022   -0.212607    0.156930
     0.000000    0.382364    0.000000    0.225225    0.315015    0.116057
     0.000000    0.000000    0.382364   -0.085843    0.056899    0.344448
     0.382364    0.000000    0.000000    0.201463   -0.279761   -0.113018
     0.000000    0.382364    0.000000   -0.162458    0.316475   -0.200700
     0.000000    0.000000    0.382364   -0.107374    0.059247    0.348799
     0.382364    0.000000    0.000000   -0.220001   -0.102775    0.138251
     0.000000    0.382364    0.000000    0.159577   -0.139057    0.160173
     0.000000    0.000000    0.382364    0.252577   -0.018925    0.008225
     0.382364    0.000000    0.000000    0.232805   -0.124953   -0.137806
     0.000000    0.382364    0.000000   -0.227440   -0.120766   -0.159661
     0.000000    0.000000    0.382364    0.177280   -0.015311   -0.008182
     0.382364    0.000000    0.000000   -0.205622    0.357692    0.112729
     0.000000    0.382364    0.000000    0.185438   -0.227990    0.200418
     0.000000    0.000000    0.382364   -0.039357   -0.047599   -0.349081
     0.382364    0.000000    0.000000    0.236325    0.345951   -0.157069
     0.000000    0.382364    0.000000   -0.185290   -0.162653   -0.116244
     0.000000    0.000000    0.382364   -0.166038   -0.036817   -0.344325
     0.110810    0.000000    0.000000   -0.104259    0.011173    0.063342
     0.000000    0.110810    0.000000    0.108805    0.147831    0.057003
     0.000000    0.000000    0.110810   -0.132133    0.023208    0.087260
     0.110810    0.000000    0.000000   -0.118588   -0.141176    0.077639
     0.000000    0.110810    0.000000    0.100252    0.111981    0.057735
     0.000000    0.000000    0.110810    0.028114    0.022292    0.168793
     0.110810    0.000000    0.000000    0.083172   -0.175273   -0.044486
     0.000000    0.110810    0.000000   -0.077388    0.099355   -0.084545
     0.000000    0.000000    0.110810    0.033987    0.021354    0.165555
     0.110810    0.000000    0.000000    0.104218   -0.030694   -0.062608
     0.000000    0.110810    0.000000   -0.072692    0.156881   -0.093090
     0.000000    0.000000    0.110810   -0.141683    0.025969    0.101022
     0.110810    0.000000    0.000000   -0.111716   -0.085206    0.071403
     0.000000    0.110810    0.000000    0.073937   -0.099042    0.081662
     0.000000    0.000000    0.110810    0.182107   -0.013101    0.009671
     0.110810    0.000000    0.000000    0.121574   -0.087346   -0.071162
     0.000000    0.110810    0.000000   -0.125460   -0.097573   -0.081411
     0.000000    0.000000    0.110810    0.143332   -0.012799   -0.009506
     0.110810    0.000000    0.000000   -0.111673    0.162042    0.062394
     0.000000    0.110810    0.000000    0.111822   -0.007588    0.092906
     0.000000    0.000000    0.110810   -0.105699   -0.006312   -0.101366
     0.110810    0.000000    0.000000   -0.080189    0.124581    0.044504
     0.000000    0.110810    0.000000    0.062188   -0.157034    0.084549
     0.000000    0.000000    0.110810    0.061527   -0.028950   -0.165467
     0.110810    0.000000    0.000000    0.094820    0.146112   -0.063286
     0.000000    0.110810    0.000000   -0.061334    0.032355   -0.057025
     0.000000    0.000000    0.110810   -0.165355    0.000555   -0.086812
     0.110810    0.000000    0.000000    0.119365    0.132559   -0.077801
     0.000000    0.110810    0.000000   -0.103055   -0.121691   -0.057934
     0.000000    0.000000    0.110810   -0.012014   -0.023568   -0.168749

 The Projection Matrix


     0.724423    0.103722   -0.062904   -0.138784    0.059137   -0.068342
     0.103722    0.690368   -0.038566    0.055871   -0.186014   -0.034961
    -0.062904   -0.038566    0.724547    0.072141    0.037178   -0.278933
    -0.138784    0.055871    0.072141    0.722171    0.098584    0.077627
     0.059137   -0.186014    0.037178    0.098584    0.686968    0.033810
    -0.068342   -0.034961   -0.278933    0.077627    0.033810    0.717098
    -0.243433    0.065880   -0.060658   -0.115007    0.024532   -0.065755
    -0.015760   -0.156927   -0.033561   -0.052949   -0.044122   -0.030495
     0.056320   -0.051880   -0.126276   -0.055250    0.048673   -0.120829
    -0.094332    0.002922    0.074561   -0.243635    0.049708    0.080467
    -0.056120   -0.038404    0.042342   -0.006009   -0.176976    0.038423
     0.041289   -0.034155   -0.127294   -0.040924    0.032004   -0.123405
    -0.138021   -0.079450   -0.076833    0.008032   -0.123981   -0.082590
    -0.034673   -0.139407   -0.040143   -0.078491   -0.003699   -0.036487
     0.035057    0.064372   -0.026632   -0.044840   -0.061390   -0.025849
     0.009667   -0.143977    0.054704   -0.114780   -0.102616    0.059664
    -0.061554   -0.039741    0.033389   -0.021313   -0.148158    0.030287
     0.005690    0.088955   -0.039758   -0.015764   -0.084429   -0.041749
    -0.075376    0.012611   -0.031404   -0.011081   -0.007761   -0.033950
     0.049035   -0.120060   -0.018706    0.025879   -0.060038   -0.016958
    -0.041003    0.012322   -0.085089    0.042974   -0.011298   -0.088369
    -0.113507    0.062171   -0.028890   -0.049200    0.040995   -0.031449
     0.039211   -0.106925   -0.017652    0.017656   -0.049935   -0.016008
    -0.014889   -0.032944   -0.099365    0.019649    0.031389   -0.099547
    -0.052357    0.041644    0.032436   -0.113188    0.060053    0.034832
     0.015507   -0.046426    0.016825    0.033831   -0.103354    0.015293
    -0.013147   -0.033595   -0.097692    0.017837    0.031990   -0.097731
    -0.013639   -0.006538    0.032258   -0.079029    0.014079    0.034846
     0.030224   -0.064614    0.016898    0.048013   -0.122511    0.015370
    -0.044906    0.012006   -0.090807    0.047226   -0.010961   -0.094358
    -0.098952    0.043716   -0.029337   -0.035631    0.023147   -0.031853
    -0.015830   -0.037300   -0.016146   -0.033375    0.017376   -0.014677
     0.040135   -0.038011   -0.029323   -0.039260    0.035672   -0.025413
    -0.020106    0.008393    0.039918   -0.099341    0.033112    0.043050
    -0.038584    0.026072    0.022824   -0.011223   -0.048211    0.020706
     0.033747   -0.027147   -0.026063   -0.033531    0.025428   -0.022905
    -0.044961   -0.033135   -0.040298    0.032513   -0.056902   -0.043354
     0.011094   -0.075947   -0.021971   -0.014151   -0.003156   -0.019949
    -0.011228    0.037559   -0.016169    0.008072   -0.035518   -0.017989
    -0.042435   -0.026350   -0.029302    0.013668   -0.043522   -0.031514
    -0.031479   -0.016721   -0.014849   -0.046905    0.034400   -0.013510
     0.034826    0.014466    0.021554   -0.039195   -0.014052    0.023667
     0.021764   -0.060039    0.021625   -0.027749   -0.043538    0.023599
     0.000861   -0.032130    0.012536    0.014963   -0.074019    0.011388
    -0.026609    0.047143   -0.026694    0.023657   -0.044462   -0.029877
     0.027150   -0.059613    0.029503   -0.038125   -0.038175    0.032100
    -0.041929    0.025899    0.018033   -0.019830   -0.032227    0.016352
     0.018539    0.029715    0.016065   -0.023245   -0.028361    0.016596


    -0.243433   -0.015760    0.056320   -0.094332   -0.056120    0.041289
     0.065880   -0.156927   -0.051880    0.002922   -0.038404   -0.034155
    -0.060658   -0.033561   -0.126276    0.074561    0.042342   -0.127294
    -0.115007   -0.052949   -0.055250   -0.243635   -0.006009   -0.040924
     0.024532   -0.044122    0.048673    0.049708   -0.176976    0.032004
    -0.065755   -0.030495   -0.120829    0.080467    0.038423   -0.123405
     0.775722   -0.001329    0.052485   -0.088775   -0.040375    0.038559
    -0.001329    0.783341   -0.044254   -0.032453   -0.101128   -0.029108
     0.052485   -0.044254    0.789577   -0.060032    0.056474   -0.191201
    -0.088775   -0.032453   -0.060032    0.764996    0.015857   -0.044312
    -0.040375   -0.101128    0.056474    0.015857    0.761993    0.037165
     0.038559   -0.029108   -0.191201   -0.044312    0.037165    0.822069
    -0.170262    0.064496    0.057777   -0.038102    0.014429    0.042852
    -0.010343   -0.239599   -0.052800   -0.044040   -0.099560   -0.034725
     0.034710    0.055575   -0.134291   -0.044891   -0.070434   -0.142810
    -0.036940    0.035553   -0.051851   -0.179637    0.070451   -0.037884
    -0.041410   -0.120633    0.044678    0.006793   -0.226547    0.029407
     0.007291    0.076528   -0.102129   -0.013396   -0.097185   -0.120148
    -0.072916    0.008045    0.026024   -0.007973   -0.012250    0.019172
     0.031250   -0.048306   -0.025153    0.000997    0.009331   -0.016559
    -0.038748    0.010336   -0.009275    0.045686   -0.013317   -0.017876
    -0.093702   -0.013143    0.026642   -0.021703   -0.031625    0.019497
     0.025582   -0.052044   -0.023677   -0.001391    0.003173   -0.015586
    -0.014860   -0.028423   -0.050437    0.019501    0.036036   -0.045631
    -0.035935   -0.030520   -0.023958   -0.089764   -0.009353   -0.017792
     0.004874   -0.002663    0.022122    0.018780   -0.061471    0.014549
    -0.013216   -0.028972   -0.051912    0.017570    0.036742   -0.046713
    -0.013940   -0.010871   -0.026389   -0.079095    0.010001   -0.019458
     0.013001    0.005956    0.022095    0.023697   -0.054820    0.014527
    -0.042468    0.010039   -0.006923    0.050151   -0.012959   -0.016028
    -0.085576   -0.005458    0.026017   -0.017169   -0.024298    0.019085
    -0.005203   -0.081021   -0.021221   -0.018335   -0.024476   -0.013956
     0.037380   -0.032431   -0.088693   -0.042700    0.041380   -0.074775
    -0.014762   -0.020148   -0.031775   -0.091394    0.005741   -0.023472
    -0.026374   -0.022878    0.030511    0.005797   -0.095686    0.020081
     0.031532   -0.023130   -0.078736   -0.036278    0.029536   -0.068053
    -0.058910    0.030360    0.030759    0.012474    0.004132    0.022789
     0.010977   -0.076150   -0.029151   -0.014178   -0.003020   -0.019180
    -0.009889    0.032225   -0.014958    0.009850   -0.040987   -0.024558
    -0.053360    0.022992    0.022245   -0.002002    0.003913    0.016488
    -0.014147   -0.087673   -0.019375   -0.022448   -0.033691   -0.012737
     0.033437    0.012660   -0.057097   -0.040744   -0.015921   -0.055074
     0.002257    0.015323   -0.020664   -0.054909    0.029107   -0.015090
    -0.002284   -0.018949    0.016573    0.010463   -0.061517    0.010902
    -0.024319    0.040369    0.000120    0.026602   -0.051402   -0.013757
     0.008271    0.011847   -0.027000   -0.064317    0.030735   -0.019768
    -0.027170   -0.033567    0.024203    0.000802   -0.089754    0.015932
     0.018264    0.025669   -0.038393   -0.023403   -0.032521   -0.041982


    -0.138021   -0.034673    0.035057    0.009667   -0.061554    0.005690
    -0.079450   -0.139407    0.064372   -0.143977   -0.039741    0.088955
    -0.076833   -0.040143   -0.026632    0.054704    0.033389   -0.039758
     0.008032   -0.078491   -0.044840   -0.114780   -0.021313   -0.015764
    -0.123981   -0.003699   -0.061390   -0.102616   -0.148158   -0.084429
    -0.082590   -0.036487   -0.025849    0.059664    0.030287   -0.041749
    -0.170262   -0.010343    0.034710   -0.036940   -0.041410    0.007291
     0.064496   -0.239599    0.055575    0.035553   -0.120633    0.076528
     0.057777   -0.052800   -0.134291   -0.051851    0.044678   -0.102129
    -0.038102   -0.044040   -0.044891   -0.179637    0.006793   -0.013396
     0.014429   -0.099560   -0.070434    0.070451   -0.226547   -0.097185
     0.042852   -0.034725   -0.142810   -0.037884    0.029407   -0.120148
     0.670866    0.097087    0.048285   -0.203646    0.033184    0.017843
     0.097087    0.727264    0.066408    0.066529   -0.125628    0.091405
     0.048285    0.066408    0.728126   -0.029062   -0.055613   -0.274686
    -0.203646    0.066529   -0.029062    0.653595    0.081800   -0.002107
     0.033184   -0.125628   -0.055613    0.081800    0.779497   -0.076779
     0.017843    0.091405   -0.274686   -0.002107   -0.076779    0.706315
    -0.074945    0.009186    0.018540   -0.011647   -0.010138    0.004911
    -0.036931   -0.040267    0.031218   -0.067902    0.008462    0.043136
    -0.045307    0.012305   -0.016005    0.036903   -0.010565   -0.033408
    -0.025009   -0.025756    0.015715    0.046690   -0.035911    0.001845
    -0.025949   -0.047001    0.029430   -0.053364    0.001131    0.040648
    -0.021221   -0.033960    0.018720    0.012156    0.028456    0.021239
     0.042441   -0.046468   -0.020599   -0.008377   -0.018269   -0.007961
    -0.041920    0.011577   -0.027830   -0.029362   -0.050377   -0.038303
    -0.019312   -0.034614    0.017776    0.010584    0.029015    0.021064
    -0.002903   -0.013776   -0.019215   -0.066215    0.007040   -0.005383
    -0.060568    0.025534   -0.027889   -0.051716   -0.041143   -0.038347
    -0.049810    0.011947   -0.011445    0.040367   -0.010285   -0.030154
    -0.042913   -0.013020    0.016473    0.024724   -0.026259    0.002900
     0.041424   -0.095028    0.026702    0.029617   -0.035287    0.036748
     0.041041   -0.038695   -0.032450   -0.036985    0.032736   -0.009285
     0.021894   -0.028197   -0.024214   -0.052060    0.000047   -0.007533
     0.018281   -0.025034   -0.038001    0.050618   -0.090950   -0.052455
     0.035122   -0.027592   -0.040656   -0.030938    0.023371   -0.022316
    -0.130327    0.045148    0.025098   -0.062237    0.012918    0.008908
     0.015234   -0.083456    0.036472   -0.009209   -0.012085    0.050277
    -0.008049    0.038477   -0.082215    0.011242   -0.032395   -0.095055
    -0.108437    0.034354    0.018310   -0.059528    0.010579    0.006596
     0.059426   -0.106649    0.024487    0.052909   -0.046561    0.033656
     0.041659    0.015153   -0.099088   -0.030515   -0.012543   -0.090194
    -0.068001    0.028412   -0.011405   -0.125266    0.033978   -0.000668
    -0.017756   -0.012191   -0.020780   -0.005655   -0.055100   -0.028628
    -0.024413    0.048188   -0.079156    0.025250   -0.040640   -0.099696
    -0.056470    0.023680   -0.016151   -0.128658    0.034634   -0.002089
     0.028868   -0.039393   -0.030072    0.057354   -0.087993   -0.041539
     0.024983    0.030675   -0.102871   -0.015512   -0.025676   -0.103337


    -0.075376    0.049035   -0.041003   -0.113507    0.039211   -0.014889
     0.012611   -0.120060    0.012322    0.062171   -0.106925   -0.032944
    -0.031404   -0.018706   -0.085089   -0.028890   -0.017652   -0.099365
    -0.011081    0.025879    0.042974   -0.049200    0.017656    0.019649
    -0.007761   -0.060038   -0.011298    0.040995   -0.049935    0.031389
    -0.033950   -0.016958   -0.088369   -0.031449   -0.016008   -0.099547
    -0.072916    0.031250   -0.038748   -0.093702    0.025582   -0.014860
     0.008045   -0.048306    0.010336   -0.013143   -0.052044   -0.028423
     0.026024   -0.025153   -0.009275    0.026642   -0.023677   -0.050437
    -0.007973    0.000997    0.045686   -0.021703   -0.001391    0.019501
    -0.012250    0.009331   -0.013317   -0.031625    0.003173    0.036036
     0.019172   -0.016559   -0.017876    0.019497   -0.015586   -0.045631
    -0.074945   -0.036931   -0.045307   -0.025009   -0.025949   -0.021221
     0.009186   -0.040267    0.012305   -0.025756   -0.047001   -0.033960
     0.018540    0.031218   -0.016005    0.015715    0.029430    0.018720
    -0.011647   -0.067902    0.036903    0.046690   -0.053364    0.012156
    -0.010138    0.008462   -0.010565   -0.035911    0.001131    0.028456
     0.004911    0.043136   -0.033408    0.001845    0.040648    0.021239
     0.972714    0.006082   -0.019563   -0.027983    0.005544   -0.008010
     0.006082    0.950779    0.005972    0.029347   -0.043032   -0.015976
    -0.019563    0.005972    0.962109   -0.019168    0.005610   -0.023810
    -0.027983    0.029347   -0.019168    0.947700    0.023215   -0.006624
     0.005544   -0.043032    0.005610    0.023215    0.961798   -0.015060
    -0.008010   -0.015976   -0.023810   -0.006624   -0.015060    0.957943
     0.001169    0.019397    0.018939   -0.023706    0.013858    0.009078
    -0.003823   -0.013727   -0.005154    0.011413   -0.010765    0.014232
    -0.007182   -0.016292   -0.022730   -0.005808   -0.015357   -0.041655
     0.002895   -0.003233    0.019946    0.000608   -0.003396    0.008322
    -0.003435   -0.022255   -0.005123    0.020755   -0.017185    0.014259
    -0.021461    0.005818   -0.040418   -0.020979    0.005463   -0.025926
    -0.027497    0.020681   -0.019015   -0.043100    0.016619   -0.007012
     0.003643   -0.010337    0.004942   -0.011554   -0.013315   -0.013655
     0.018520   -0.018429    0.011244    0.018995   -0.017348   -0.018739
     0.005880    0.003741    0.024301   -0.004668    0.001702    0.010541
    -0.006833    0.020437   -0.007209   -0.022332    0.015925    0.019444
     0.015689   -0.013161    0.007787    0.015929   -0.012387   -0.014419
    -0.029684   -0.015361   -0.023961   -0.007490   -0.010552   -0.011004
     0.005858   -0.028620    0.006844    0.004976   -0.028003   -0.018657
    -0.004529    0.018212   -0.017253   -0.005556    0.017156    0.007943
    -0.024850   -0.012229   -0.017370   -0.007656   -0.008481   -0.008035
     0.002883   -0.000650    0.004484   -0.021359   -0.005810   -0.012519
     0.017219    0.007017    0.010961    0.016056    0.006627    0.014566
    -0.000017   -0.028309    0.014660    0.024507   -0.022214    0.004759
    -0.003144   -0.007138   -0.003879    0.001722   -0.006461    0.010629
    -0.011747    0.022858   -0.026565   -0.012791    0.021527    0.007011
     0.003613   -0.028149    0.019485    0.026631   -0.022319    0.006821
    -0.005715    0.020226   -0.005737   -0.024903    0.015024    0.015389
     0.009700    0.014411    0.001406    0.008349    0.013586    0.017068


    -0.052357    0.015507   -0.013147   -0.013639    0.030224   -0.044906
     0.041644   -0.046426   -0.033595   -0.006538   -0.064614    0.012006
     0.032436    0.016825   -0.097692    0.032258    0.016898   -0.090807
    -0.113188    0.033831    0.017837   -0.079029    0.048013    0.047226
     0.060053   -0.103354    0.031990    0.014079   -0.122511   -0.010961
     0.034832    0.015293   -0.097731    0.034846    0.015370   -0.094358
    -0.035935    0.004874   -0.013216   -0.013940    0.013001   -0.042468
    -0.030520   -0.002663   -0.028972   -0.010871    0.005956    0.010039
    -0.023958    0.022122   -0.051912   -0.026389    0.022095   -0.006923
    -0.089764    0.018780    0.017570   -0.079095    0.023697    0.050151
    -0.009353   -0.061471    0.036742    0.010001   -0.054820   -0.012959
    -0.017792    0.014549   -0.046713   -0.019458    0.014527   -0.016028
     0.042441   -0.041920   -0.019312   -0.002903   -0.060568   -0.049810
    -0.046468    0.011577   -0.034614   -0.013776    0.025534    0.011947
    -0.020599   -0.027830    0.017776   -0.019215   -0.027889   -0.011445
    -0.008377   -0.029362    0.010584   -0.066215   -0.051716    0.040367
    -0.018269   -0.050377    0.029015    0.007040   -0.041143   -0.010285
    -0.007961   -0.038303    0.021064   -0.005383   -0.038347   -0.030154
     0.001169   -0.003823   -0.007182    0.002895   -0.003435   -0.021461
     0.019397   -0.013727   -0.016292   -0.003233   -0.022255    0.005818
     0.018939   -0.005154   -0.022730    0.019946   -0.005123   -0.040418
    -0.023706    0.011413   -0.005808    0.000608    0.020755   -0.020979
     0.013858   -0.010765   -0.015357   -0.003396   -0.017185    0.005463
     0.009078    0.014232   -0.041655    0.008322    0.014259   -0.025926
     0.948104    0.020090    0.008281   -0.029112    0.029402    0.020830
     0.020090    0.964713    0.014506    0.005822   -0.041362   -0.005004
     0.008281    0.014506    0.958702    0.007478    0.014532   -0.024743
    -0.029112    0.005822    0.007478    0.971998    0.006563    0.021888
     0.029402   -0.041362    0.014532    0.006563    0.949160   -0.004969
     0.020830   -0.005004   -0.024743    0.021888   -0.004969    0.956767
    -0.014745    0.005857   -0.006205    0.001219    0.011893   -0.020829
    -0.019876    0.010187   -0.013917   -0.005633    0.016235    0.004798
    -0.017012    0.016212   -0.019790   -0.018776    0.016193    0.012886
    -0.040866    0.012070    0.009514   -0.032085    0.015916    0.026682
    -0.010289   -0.019177    0.019826    0.004983   -0.013670   -0.007017
    -0.014588    0.011560   -0.015303   -0.015926    0.011542    0.009321
     0.028186   -0.019467   -0.009994    0.008240   -0.027731   -0.026333
    -0.006497    0.004984   -0.019020   -0.006070    0.005689    0.006655
     0.003175   -0.016123    0.008230    0.004476   -0.016129   -0.016850
     0.018206   -0.014821   -0.007303    0.002688   -0.021231   -0.019093
    -0.028935    0.015284   -0.012758   -0.006008    0.024748    0.004348
    -0.017552   -0.006352    0.013642   -0.017660   -0.006389    0.013906
     0.002629   -0.012529    0.004135   -0.021638   -0.021921    0.016033
     0.008235   -0.025061    0.010834    0.003815   -0.027122   -0.003769
     0.009988   -0.020191    0.007701    0.011815   -0.020188   -0.026951
    -0.002434   -0.010511    0.005993   -0.025521   -0.019362    0.021329
    -0.015335   -0.013062    0.015692    0.003378   -0.006072   -0.005588
    -0.010639   -0.012855    0.016570   -0.010036   -0.012885    0.003678


    -0.098952   -0.015830    0.040135   -0.020106   -0.038584    0.033747
     0.043716   -0.037300   -0.038011    0.008393    0.026072   -0.027147
    -0.029337   -0.016146   -0.029323    0.039918    0.022824   -0.026063
    -0.035631   -0.033375   -0.039260   -0.099341   -0.011223   -0.033531
     0.023147    0.017376    0.035672    0.033112   -0.048211    0.025428
    -0.031853   -0.014677   -0.025413    0.043050    0.020706   -0.022905
    -0.085576   -0.005203    0.037380   -0.014762   -0.026374    0.031532
    -0.005458   -0.081021   -0.032431   -0.020148   -0.022878   -0.023130
     0.026017   -0.021221   -0.088693   -0.031775    0.030511   -0.078736
    -0.017169   -0.018335   -0.042700   -0.091394    0.005797   -0.036278
    -0.024298   -0.024476    0.041380    0.005741   -0.095686    0.029536
     0.019085   -0.013956   -0.074775   -0.023472    0.020081   -0.068053
    -0.042913    0.041424    0.041041    0.021894    0.018281    0.035122
    -0.013020   -0.095028   -0.038695   -0.028197   -0.025034   -0.027592
     0.016473    0.026702   -0.032450   -0.024214   -0.038001   -0.040656
     0.024724    0.029617   -0.036985   -0.052060    0.050618   -0.030938
    -0.026259   -0.035287    0.032736    0.000047   -0.090950    0.023371
     0.002900    0.036748   -0.009285   -0.007533   -0.052455   -0.022316
    -0.027497    0.003643    0.018520    0.005880   -0.006833    0.015689
     0.020681   -0.010337   -0.018429    0.003741    0.020437   -0.013161
    -0.019015    0.004942    0.011244    0.024301   -0.007209    0.007787
    -0.043100   -0.011554    0.018995   -0.004668   -0.022332    0.015929
     0.016619   -0.013315   -0.017348    0.001702    0.015925   -0.012387
    -0.007012   -0.013655   -0.018739    0.010541    0.019444   -0.014419
    -0.014745   -0.019876   -0.017012   -0.040866   -0.010289   -0.014588
     0.005857    0.010187    0.016212    0.012070   -0.019177    0.011560
    -0.006205   -0.013917   -0.019790    0.009514    0.019826   -0.015303
     0.001219   -0.005633   -0.018776   -0.032085    0.004983   -0.015926
     0.011893    0.016235    0.016193    0.015916   -0.013670    0.011542
    -0.020829    0.004798    0.012886    0.026682   -0.007017    0.009321
     0.962882   -0.006010    0.018537   -0.001058   -0.016517    0.015601
    -0.006010    0.965776   -0.015552   -0.011829   -0.006018   -0.011089
     0.018537   -0.015552    0.954293   -0.022596    0.022356   -0.038456
    -0.001058   -0.011829   -0.022596    0.960247    0.000937   -0.019220
    -0.016517   -0.006018    0.022356    0.000937    0.955833    0.015960
     0.015601   -0.011089   -0.038456   -0.019220    0.015960    0.966923
    -0.015403    0.019211    0.021856    0.019892    0.006880    0.018674
     0.005212   -0.028885   -0.021362   -0.007646    0.008573   -0.015242
    -0.005108    0.015468    0.007867    0.005085   -0.022129    0.001827
    -0.013800    0.014634    0.015805    0.011519    0.005718    0.013511
    -0.012470   -0.039334   -0.014200   -0.015260   -0.012916   -0.010120
     0.016222    0.006096   -0.022262   -0.021784   -0.008576   -0.023041
     0.015282    0.012629   -0.014741   -0.015548    0.021001   -0.012322
    -0.000023    0.000117    0.012145    0.006225   -0.021459    0.008663
    -0.012227    0.019370    0.018680    0.013974   -0.027759    0.010604
     0.017906    0.010657   -0.019248   -0.020749    0.021576   -0.016152
    -0.017745   -0.011981    0.017733   -0.002223   -0.041798    0.012663
     0.008699    0.012334   -0.008768   -0.012606   -0.017545   -0.012463


    -0.044961    0.011094   -0.011228   -0.042435   -0.031479    0.034826
    -0.033135   -0.075947    0.037559   -0.026350   -0.016721    0.014466
    -0.040298   -0.021971   -0.016169   -0.029302   -0.014849    0.021554
     0.032513   -0.014151    0.008072    0.013668   -0.046905   -0.039195
    -0.056902   -0.003156   -0.035518   -0.043522    0.034400   -0.014052
    -0.043354   -0.019949   -0.017989   -0.031514   -0.013510    0.023667
    -0.058910    0.010977   -0.009889   -0.053360   -0.014147    0.033437
     0.030360   -0.076150    0.032225    0.022992   -0.087673    0.012660
     0.030759   -0.029151   -0.014958    0.022245   -0.019375   -0.057097
     0.012474   -0.014178    0.009850   -0.002002   -0.022448   -0.040744
     0.004132   -0.003020   -0.040987    0.003913   -0.033691   -0.015921
     0.022789   -0.019180   -0.024558    0.016488   -0.012737   -0.055074
    -0.130327    0.015234   -0.008049   -0.108437    0.059426    0.041659
     0.045148   -0.083456    0.038477    0.034354   -0.106649    0.015153
     0.025098    0.036472   -0.082215    0.018310    0.024487   -0.099088
    -0.062237   -0.009209    0.011242   -0.059528    0.052909   -0.030515
     0.012918   -0.012085   -0.032395    0.010579   -0.046561   -0.012543
     0.008908    0.050277   -0.095055    0.006596    0.033656   -0.090194
    -0.029684    0.005858   -0.004529   -0.024850    0.002883    0.017219
    -0.015361   -0.028620    0.018212   -0.012229   -0.000650    0.007017
    -0.023961    0.006844   -0.017253   -0.017370    0.004484    0.010961
    -0.007490    0.004976   -0.005556   -0.007656   -0.021359    0.016056
    -0.010552   -0.028003    0.017156   -0.008481   -0.005810    0.006627
    -0.011004   -0.018657    0.007943   -0.008035   -0.012519    0.014566
     0.028186   -0.006497    0.003175    0.018206   -0.028935   -0.017552
    -0.019467    0.004984   -0.016123   -0.014821    0.015284   -0.006352
    -0.009994   -0.019020    0.008230   -0.007303   -0.012758    0.013642
     0.008240   -0.006070    0.004476    0.002688   -0.006008   -0.017660
    -0.027731    0.005689   -0.016129   -0.021231    0.024748   -0.006389
    -0.026333    0.006655   -0.016850   -0.019093    0.004348    0.013906
    -0.015403    0.005212   -0.005108   -0.013800   -0.012470    0.016222
     0.019211   -0.028885    0.015468    0.014634   -0.039334    0.006096
     0.021856   -0.021362    0.007867    0.015805   -0.014200   -0.022262
     0.019892   -0.007646    0.005085    0.011519   -0.015260   -0.021784
     0.006880    0.008573   -0.022129    0.005718   -0.012916   -0.008576
     0.018674   -0.015242    0.001827    0.013511   -0.010120   -0.023041
     0.945100    0.007920   -0.004456   -0.044198    0.027115    0.021886
     0.007920    0.966528    0.021189    0.005777   -0.028280    0.008273
    -0.004456    0.021189    0.966234   -0.003178    0.014152   -0.022731
    -0.044198    0.005777   -0.003178    0.963790    0.020788    0.015904
     0.027115   -0.028280    0.014152    0.020788    0.952046    0.005618
     0.021886    0.008273   -0.022731    0.015904    0.005618    0.955718
    -0.021418   -0.003615    0.004530   -0.020062    0.022399   -0.012076
    -0.008534    0.000123   -0.012059   -0.006411    0.001438   -0.004725
    -0.013139    0.026560   -0.038553   -0.009465    0.017710   -0.016454
    -0.015575   -0.005114    0.005567   -0.015759    0.019971   -0.016380
     0.011825    0.003704   -0.017534    0.009475   -0.020081   -0.006768
     0.013006    0.016842   -0.030803    0.009483    0.011314   -0.040144


     0.021764    0.000861   -0.026609    0.027150   -0.041929    0.018539
    -0.060039   -0.032130    0.047143   -0.059613    0.025899    0.029715
     0.021625    0.012536   -0.026694    0.029503    0.018033    0.016065
    -0.027749    0.014963    0.023657   -0.038125   -0.019830   -0.023245
    -0.043538   -0.074019   -0.044462   -0.038175   -0.032227   -0.028361
     0.023599    0.011388   -0.029877    0.032100    0.016352    0.016596
     0.002257   -0.002284   -0.024319    0.008271   -0.027170    0.018264
     0.015323   -0.018949    0.040369    0.011847   -0.033567    0.025669
    -0.020664    0.016573    0.000120   -0.027000    0.024203   -0.038393
    -0.054909    0.010463    0.026602   -0.064317    0.000802   -0.023403
     0.029107   -0.061517   -0.051402    0.030735   -0.089754   -0.032521
    -0.015090    0.010902   -0.013757   -0.019768    0.015932   -0.041982
    -0.068001   -0.017756   -0.024413   -0.056470    0.028868    0.024983
     0.028412   -0.012191    0.048188    0.023680   -0.039393    0.030675
    -0.011405   -0.020780   -0.079156   -0.016151   -0.030072   -0.102871
    -0.125266   -0.005655    0.025250   -0.128658    0.057354   -0.015512
     0.033978   -0.055100   -0.040640    0.034634   -0.087993   -0.025676
    -0.000668   -0.028628   -0.099696   -0.002089   -0.041539   -0.103337
    -0.000017   -0.003144   -0.011747    0.003613   -0.005715    0.009700
    -0.028309   -0.007138    0.022858   -0.028149    0.020226    0.014411
     0.014660   -0.003879   -0.026565    0.019485   -0.005737    0.001406
     0.024507    0.001722   -0.012791    0.026631   -0.024903    0.008349
    -0.022214   -0.006461    0.021527   -0.022319    0.015024    0.013586
     0.004759    0.010629    0.007011    0.006821    0.015389    0.017068
     0.002629    0.008235    0.009988   -0.002434   -0.015335   -0.010639
    -0.012529   -0.025061   -0.020191   -0.010511   -0.013062   -0.012855
     0.004135    0.010834    0.007701    0.005993    0.015692    0.016570
    -0.021638    0.003815    0.011815   -0.025521    0.003378   -0.010036
    -0.021921   -0.027122   -0.020188   -0.019362   -0.006072   -0.012885
     0.016033   -0.003769   -0.026951    0.021329   -0.005588    0.003678
     0.015282   -0.000023   -0.012227    0.017906   -0.017745    0.008699
     0.012629    0.000117    0.019370    0.010657   -0.011981    0.012334
    -0.014741    0.012145    0.018680   -0.019248    0.017733   -0.008768
    -0.015548    0.006225    0.013974   -0.020749   -0.002223   -0.012606
     0.021001   -0.021459   -0.027759    0.021576   -0.041798   -0.017545
    -0.012322    0.008663    0.010604   -0.016152    0.012663   -0.012463
    -0.021418   -0.008534   -0.013139   -0.015575    0.011825    0.013006
    -0.003615    0.000123    0.026560   -0.005114    0.003704    0.016842
     0.004530   -0.012059   -0.038553    0.005567   -0.017534   -0.030803
    -0.020062   -0.006411   -0.009465   -0.015759    0.009475    0.009483
     0.022399    0.001438    0.017710    0.019971   -0.020081    0.011314
    -0.012076   -0.004725   -0.016454   -0.016380   -0.006768   -0.040144
     0.953376   -0.002521    0.010104   -0.047889    0.023886   -0.006097
    -0.002521    0.979661   -0.015110   -0.001404   -0.017966   -0.009597
     0.010104   -0.015110    0.952842    0.012910   -0.022003   -0.028902
    -0.047889   -0.001404    0.012910    0.949848    0.023925   -0.008571
     0.023886   -0.017966   -0.022003    0.023925    0.958936   -0.013882
    -0.006097   -0.009597   -0.028902   -0.008571   -0.013882    0.958545

 Translations and Rotations Projected Out of Hessian

 Projected Mass-Weighted Hessian Matrix:


     0.035622   -0.001986   -0.007995   -0.003036    0.000909   -0.000897
    -0.001986    0.047356   -0.001714    0.000789   -0.005993    0.000205
    -0.007995   -0.001714    0.036453    0.000090    0.000051   -0.014181
    -0.003036    0.000789    0.000090    0.038263   -0.003907    0.007725
     0.000909   -0.005993    0.000051   -0.003907    0.046150    0.002346
    -0.000897    0.000205   -0.014181    0.007725    0.002346    0.035407
    -0.013715   -0.001614   -0.000196   -0.003473   -0.000202   -0.002295
    -0.001476   -0.006714    0.000153   -0.000978    0.000792   -0.000260
     0.000577    0.000113   -0.002831   -0.002597   -0.000244   -0.003313
    -0.003013   -0.000760    0.002325   -0.013960   -0.002651    0.001051
    -0.001027    0.000553    0.000728   -0.002310   -0.006950   -0.000312
     0.002402    0.001138   -0.003725    0.000254   -0.000276   -0.002946
    -0.000512   -0.002300   -0.000436   -0.000036    0.000105    0.000159
    -0.000495   -0.000496   -0.000211   -0.000110   -0.000111   -0.000056
     0.000017    0.000280    0.000090   -0.000114    0.000098   -0.000109
    -0.000024    0.000104   -0.000110   -0.000099   -0.002300   -0.000080
    -0.000101    0.000023    0.000047   -0.000423   -0.000937   -0.000021
     0.000057   -0.000097   -0.000001   -0.000194   -0.000234    0.000063
    -0.034917    0.029037    0.018203    0.000706   -0.001713   -0.001014
     0.029077   -0.047696   -0.022813   -0.000506   -0.000146    0.000547
     0.017928   -0.022728   -0.026471    0.003793   -0.006078   -0.002444
    -0.014872   -0.012868    0.005212   -0.000172    0.001740   -0.000131
    -0.013001   -0.073157    0.026723    0.000232    0.000737   -0.000973
     0.005309    0.026678   -0.022883    0.001194    0.007111   -0.002987
    -0.000248    0.001225    0.000328   -0.012525   -0.005000   -0.002422
     0.000203    0.000860    0.000916   -0.005182   -0.075395   -0.026211
    -0.000189   -0.007590   -0.003671   -0.002424   -0.026169   -0.021791
     0.000570   -0.001276    0.000605   -0.045752    0.030267   -0.019798
    -0.000493   -0.000355   -0.000709    0.030471   -0.039130    0.018514
    -0.004498    0.004984   -0.001695   -0.019472    0.018321   -0.024653
    -0.003445    0.004822   -0.002826   -0.000703   -0.000147   -0.000336
    -0.001884    0.001308   -0.000959   -0.000245   -0.000250   -0.000225
     0.000858   -0.001460    0.000502   -0.000300    0.000126   -0.000467
    -0.000678   -0.000506    0.000387   -0.002861    0.003440    0.004344
    -0.000562   -0.000191    0.000456   -0.002061    0.000852    0.001775
     0.000431    0.000001   -0.000581   -0.000719    0.001111    0.000657
     0.000508   -0.000318   -0.000209    0.000015   -0.000006   -0.000097
     0.000691    0.000572    0.000105    0.000041    0.000203   -0.000088
     0.000012   -0.000088    0.000149    0.000043   -0.000147   -0.000005
     0.000260   -0.000314    0.000100   -0.000019    0.000019   -0.000047
     0.000204   -0.001462   -0.000322   -0.000003    0.000124    0.000152
     0.000405    0.000357    0.000027    0.000082    0.000049   -0.000023
    -0.000025    0.000031    0.000049    0.000381   -0.000494    0.000151
     0.000107    0.000058   -0.000046    0.000628    0.000509   -0.000018
    -0.000060    0.000134    0.000114    0.000211    0.000321    0.000303
    -0.000022    0.000069   -0.000034   -0.000005   -0.000343   -0.000192
     0.000065    0.000225   -0.000088    0.000567   -0.001208   -0.000040
    -0.000050   -0.000028   -0.000028   -0.000227   -0.000655   -0.000078


    -0.013715   -0.001476    0.000577   -0.003013   -0.001027    0.002402
[...]
 H          0.125  0.047 -0.353    0.214  0.061 -0.123   -0.177 -0.087  0.046
 H          0.035  0.155  0.289    0.387  0.424 -0.031   -0.080 -0.058  0.029
 H         -0.199 -0.009 -0.261   -0.332 -0.406  0.005   -0.161 -0.236  0.025
 H          0.040 -0.169  0.313    0.021 -0.106  0.061   -0.057 -0.262  0.047
 H          0.037 -0.080  0.224   -0.018 -0.264  0.078   -0.009  0.308 -0.237
 H         -0.082 -0.085 -0.202    0.014  0.139  0.215   -0.040 -0.195 -0.097
 H         -0.072  0.101 -0.255   -0.005  0.084  0.033    0.060  0.245  0.328
 TransDip   0.001 -0.001 -0.000    0.003 -0.004 -0.001    0.002  0.001 -0.002

 Mode:                16                     17                     18
 Frequency:      1043.75                1072.78                1098.87
 Force Cnst:      1.1053                 1.2521                 1.4611
 Red. Mass:       1.7220                 1.8466                 2.0537
 IR Active:          YES                    YES                    YES
 IR Intens:        0.297                  0.031                  0.744
 Raman Active:       YES                    YES                    YES
               X      Y      Z        X      Y      Z        X      Y      Z
 C         -0.087 -0.026  0.021   -0.048  0.106  0.007    0.031  0.019  0.040
 C         -0.086  0.004 -0.015    0.004 -0.109 -0.003    0.045  0.000 -0.043
 C          0.077  0.107 -0.009    0.101 -0.041  0.035   -0.020  0.026  0.200
 C          0.084  0.086 -0.005   -0.054  0.088  0.051   -0.058  0.041 -0.186
 C          0.013 -0.087 -0.035   -0.103 -0.016  0.012    0.020 -0.054  0.031
 C         -0.009 -0.087  0.011    0.110 -0.031 -0.019   -0.030 -0.025 -0.043
 H         -0.104 -0.005 -0.019   -0.322 -0.141  0.027   -0.085 -0.035 -0.016
 H         -0.183 -0.031 -0.030    0.167 -0.020 -0.161   -0.184 -0.024 -0.161
 H         -0.079 -0.035  0.068   -0.205 -0.028 -0.143   -0.143 -0.021  0.051
 H         -0.231 -0.095  0.076    0.220  0.160  0.011   -0.077 -0.027  0.108
 H          0.354  0.470  0.129    0.269 -0.097 -0.283    0.288 -0.144 -0.484
 H          0.396  0.368  0.112   -0.188  0.264 -0.192    0.281 -0.331  0.387
 H         -0.055 -0.279  0.050    0.126  0.220  0.031   -0.013  0.085 -0.103
 H         -0.013 -0.097  0.064   -0.027 -0.178 -0.161   -0.007  0.144 -0.009
 H          0.007 -0.091 -0.032   -0.089 -0.345 -0.015    0.032  0.112  0.025
 H         -0.003 -0.176 -0.047   -0.066  0.199 -0.094    0.034  0.154  0.200
 TransDip   0.011  0.011  0.007    0.000 -0.001 -0.005    0.021 -0.017 -0.004

 Mode:                19                     20                     21
 Frequency:      1148.08                1161.14                1177.19
 Force Cnst:      1.0717                 1.1228                 1.0254
 Red. Mass:       1.3800                 1.4134                 1.2559
 IR Active:          YES                    YES                    YES
 IR Intens:        0.034                  0.073                  0.000
 Raman Active:       YES                    YES                    YES
               X      Y      Z        X      Y      Z        X      Y      Z
 C         -0.011  0.042  0.027   -0.040  0.054  0.036    0.025 -0.053  0.011
 C          0.041 -0.039  0.002   -0.014  0.039 -0.038   -0.030  0.069  0.015
 C          0.046 -0.061 -0.072    0.076 -0.059 -0.015    0.027  0.006  0.026
 C         -0.078  0.047 -0.057    0.074 -0.070 -0.005   -0.004 -0.025 -0.026
 C         -0.044  0.031  0.018   -0.035  0.005  0.040   -0.076  0.022 -0.001
 C          0.045 -0.007  0.017   -0.061  0.035 -0.016    0.056 -0.017 -0.025
 H          0.035 -0.014  0.174   -0.328 -0.096 -0.103   -0.246 -0.029 -0.365
 H         -0.134 -0.046 -0.226    0.203  0.016  0.083    0.097  0.040  0.255
 H          0.083  0.055 -0.221    0.212  0.072 -0.179   -0.032 -0.035  0.258
 H         -0.036  0.018  0.216   -0.365 -0.165  0.250    0.086 -0.008 -0.282
 H         -0.162  0.096  0.469    0.137 -0.025 -0.039   -0.088 -0.175 -0.072
 H          0.212 -0.244  0.426    0.031 -0.116 -0.025    0.168  0.120  0.043
 H          0.067 -0.052  0.193    0.064  0.395 -0.180    0.079 -0.154  0.283
 H         -0.001  0.129 -0.206   -0.008 -0.261  0.144   -0.022  0.083 -0.252
 H          0.016  0.012  0.182    0.064  0.304  0.139    0.064  0.184  0.411
 H         -0.072 -0.112 -0.245   -0.008 -0.184 -0.124   -0.078 -0.050 -0.259
 TransDip  -0.002 -0.004  0.004   -0.007  0.005  0.000   -0.000  0.001  0.000

 Mode:                22                     23                     24
 Frequency:      1190.18                1205.44                1207.74
 Force Cnst:      1.2184                 1.1962                 1.1662
 Red. Mass:       1.4598                 1.3972                 1.3569
 IR Active:          YES                    YES                    YES
 IR Intens:        0.336                  0.208                  0.120
 Raman Active:       YES                    YES                    YES
               X      Y      Z        X      Y      Z        X      Y      Z
 C         -0.017 -0.033 -0.027   -0.045  0.011 -0.042   -0.098 -0.020 -0.084
 C         -0.070 -0.001  0.081   -0.028 -0.039  0.034    0.049  0.007 -0.026
 C          0.069  0.002 -0.048    0.015  0.047  0.014   -0.013  0.012  0.025
 C         -0.013  0.069 -0.029    0.038 -0.002  0.030    0.032  0.026  0.001
 C          0.018 -0.081  0.072   -0.018  0.015  0.014   -0.019 -0.073  0.042
 C         -0.036 -0.020 -0.032   -0.013 -0.092 -0.117    0.020  0.025  0.018
 H         -0.045  0.004 -0.125    0.295  0.045  0.335    0.317  0.068  0.306
 H          0.124  0.029  0.182   -0.008 -0.002 -0.053    0.334  0.072  0.337
 H          0.089  0.026 -0.016    0.193  0.073 -0.278   -0.176 -0.057  0.178
 H          0.344  0.116 -0.430    0.015  0.025  0.062   -0.081 -0.034  0.133
 H         -0.091  0.050  0.255   -0.084 -0.112 -0.077    0.168  0.127 -0.065
 H          0.117 -0.116  0.221   -0.001  0.128 -0.092   -0.166 -0.188 -0.051
 H         -0.009  0.455 -0.377    0.023 -0.057  0.115    0.024  0.107 -0.059
 H          0.013  0.089 -0.024   -0.000 -0.001 -0.038   -0.008  0.337 -0.303
 H         -0.003  0.020 -0.081    0.105  0.366  0.508   -0.001  0.021  0.086
 H          0.049  0.097  0.195    0.075  0.255  0.306   -0.057 -0.176 -0.266
 TransDip   0.011  0.014  0.005    0.002  0.014  0.001    0.011  0.001 -0.002

 Mode:                25                     26                     27
 Frequency:      1231.57                1245.43                1253.49
 Force Cnst:      1.4608                 1.3748                 1.6392
 Red. Mass:       1.6346                 1.5044                 1.7707
 IR Active:          YES                    YES                    YES
 IR Intens:        2.995                  0.664                  0.257
 Raman Active:       YES                    YES                    YES
               X      Y      Z        X      Y      Z        X      Y      Z
 C         -0.038  0.020 -0.069   -0.064 -0.020 -0.040    0.061  0.035  0.032
 C         -0.074 -0.031  0.090    0.080  0.037 -0.048   -0.031 -0.040 -0.026
 C         -0.000 -0.047  0.078    0.054 -0.069 -0.011   -0.099 -0.104 -0.034
 C          0.049  0.037 -0.081   -0.084  0.035  0.007    0.102  0.128  0.038
 C         -0.001  0.080 -0.075    0.014  0.085 -0.037    0.035  0.043  0.013
 C         -0.018  0.014  0.068   -0.015 -0.049 -0.039   -0.039 -0.066 -0.035
 H          0.108 -0.018  0.176    0.020  0.013  0.022   -0.257 -0.075 -0.200
 H          0.244  0.072  0.190    0.320  0.057  0.329   -0.016  0.002 -0.081
 H          0.232  0.106 -0.308   -0.267 -0.099  0.367   -0.172 -0.090  0.128
 H          0.233  0.073 -0.271   -0.073 -0.023  0.125    0.102  0.080 -0.072
 H          0.173 -0.041 -0.152    0.009  0.022  0.204    0.297  0.363  0.085
 H          0.053 -0.245  0.101    0.079 -0.011  0.206   -0.389 -0.421 -0.073
 H          0.007 -0.265  0.210    0.013 -0.084  0.102   -0.053 -0.143  0.076
 H         -0.016 -0.291  0.258    0.006 -0.338  0.322    0.039  0.112 -0.057
 H          0.008 -0.029 -0.134    0.008 -0.008 -0.017    0.073  0.233  0.240
 H         -0.061 -0.227 -0.199    0.064  0.247  0.331    0.023 -0.018  0.102
 TransDip   0.044 -0.033 -0.007   -0.000 -0.007  0.025   -0.010  0.012  0.003

 Mode:                28                     29                     30
 Frequency:      1266.26                1392.65                1399.15
 Force Cnst:      1.4482                 1.2322                 1.2476
 Red. Mass:       1.5330                 1.0783                 1.0817
 IR Active:          YES                    YES                    YES
 IR Intens:        1.606                  0.143                  1.302
 Raman Active:       YES                    YES                    YES
               X      Y      Z        X      Y      Z        X      Y      Z
 C          0.010  0.039 -0.030    0.019  0.005 -0.032    0.026  0.006 -0.026
 C         -0.000  0.021  0.044   -0.032 -0.013 -0.039   -0.020 -0.007 -0.020
 C         -0.108 -0.109 -0.004    0.009  0.007  0.002   -0.005  0.000 -0.006
 C         -0.071 -0.099 -0.009   -0.004 -0.009 -0.004    0.001 -0.001 -0.007
 C          0.035  0.009  0.036    0.011  0.019  0.032   -0.012 -0.025 -0.034
 C          0.024  0.014 -0.029    0.003 -0.013  0.019   -0.005  0.039 -0.031
 H         -0.030  0.016 -0.063   -0.138 -0.266  0.210   -0.131 -0.232  0.156
 H          0.244  0.024  0.036   -0.225  0.157  0.218   -0.204  0.140  0.186
 H          0.265  0.065 -0.110    0.339 -0.155  0.249    0.197 -0.089  0.147
 H          0.038  0.043  0.030    0.130  0.353  0.253    0.079  0.205  0.134
 H          0.446  0.434  0.006   -0.012 -0.022 -0.007    0.003  0.009 -0.004
 H          0.308  0.416  0.019    0.020  0.013  0.002    0.004  0.001 -0.006
 H          0.035  0.001  0.054   -0.276 -0.106 -0.157    0.319  0.134  0.168
 H          0.012  0.286 -0.058    0.112 -0.198 -0.250   -0.131  0.229  0.294
 H          0.021  0.010 -0.062    0.124  0.132 -0.149   -0.241 -0.259  0.238
 H         -0.019  0.205  0.051   -0.143  0.139 -0.095    0.277 -0.277  0.168
 TransDip  -0.025 -0.032  0.000   -0.007  0.006  0.008    0.008 -0.004  0.036

 Mode:                31                     32                     33
 Frequency:      1408.71                1426.92                2975.85
 Force Cnst:      1.3216                 1.3397                 5.5216
 Red. Mass:       1.1303                 1.1168                 1.0583
 IR Active:          YES                    YES                    YES
 IR Intens:        2.385                  3.689                 88.344
 Raman Active:       YES                    YES                    YES
               X      Y      Z        X      Y      Z        X      Y      Z
 C         -0.029 -0.013  0.035   -0.039 -0.012  0.035    0.014  0.000 -0.013
 C         -0.037 -0.016 -0.037   -0.033 -0.011 -0.023   -0.035 -0.004 -0.032
 C          0.008  0.015  0.001    0.004 -0.004  0.017    0.002 -0.002  0.002
 C          0.014  0.011  0.001    0.001 -0.002 -0.018   -0.002  0.002  0.002
 C         -0.017 -0.033 -0.041    0.011  0.031  0.027   -0.005 -0.026 -0.033
 C         -0.002 -0.037  0.031   -0.001  0.045 -0.027   -0.003  0.011 -0.007
 H          0.130  0.244 -0.183    0.161  0.311 -0.224   -0.131  0.160  0.099
 H          0.189 -0.157 -0.203    0.276 -0.185 -0.227   -0.033 -0.163  0.068
 H          0.261 -0.139  0.215    0.228 -0.100  0.152    0.025  0.387  0.152
 H          0.107  0.296  0.202    0.084  0.234  0.148    0.381 -0.343  0.225
 H         -0.048 -0.043 -0.007    0.020 -0.023 -0.021   -0.028  0.028 -0.024
 H         -0.038 -0.052 -0.010    0.030 -0.017  0.013    0.028 -0.019 -0.035
 H          0.310  0.123  0.162   -0.248 -0.101 -0.118   -0.298  0.242  0.301
 H         -0.133  0.201  0.287    0.103 -0.186 -0.213    0.357  0.058  0.080
 H          0.185  0.198 -0.196   -0.226 -0.235  0.225    0.138 -0.084  0.032
 H         -0.221  0.193 -0.137    0.254 -0.261  0.134   -0.103 -0.053  0.063
 TransDip   0.032  0.038  0.004    0.047 -0.039 -0.008   -0.106 -0.073 -0.272

 Mode:                34                     35                     36
 Frequency:      2976.44                2985.14                2986.99
 Force Cnst:      5.5255                 5.5776                 5.5825
 Red. Mass:       1.0586                 1.0624                 1.0620
 IR Active:          YES                    YES                    YES
 IR Intens:        3.502                 49.466                 43.432
 Raman Active:       YES                    YES                    YES
               X      Y      Z        X      Y      Z        X      Y      Z
 C         -0.013  0.001  0.013    0.041 -0.005 -0.043   -0.016  0.001  0.017
 C          0.030  0.002  0.027    0.017  0.004  0.018   -0.007 -0.005 -0.008
 C          0.004 -0.003  0.002    0.000 -0.003  0.001   -0.005  0.005 -0.003
 C          0.002 -0.002 -0.002    0.002 -0.003 -0.002   -0.006  0.003  0.005
 C         -0.005 -0.029 -0.037    0.001  0.005  0.008    0.008  0.013  0.018
 C         -0.006  0.015 -0.010   -0.010  0.020 -0.014   -0.019  0.046 -0.033
 H          0.123 -0.158 -0.097   -0.395  0.497  0.309    0.156 -0.193 -0.121
 H          0.026  0.138 -0.056   -0.078 -0.425  0.174    0.034  0.178 -0.074
 H         -0.020 -0.319 -0.125   -0.014 -0.214 -0.084    0.010  0.120  0.049
 H         -0.324  0.294 -0.192   -0.178  0.166 -0.108    0.075 -0.064  0.043
 H         -0.038  0.040 -0.028   -0.021  0.023 -0.017    0.065 -0.066  0.045
 H         -0.033  0.022  0.034   -0.029  0.022  0.030    0.064 -0.044 -0.069
 H         -0.346  0.279  0.349    0.064 -0.045 -0.062    0.138 -0.109 -0.138
 H          0.399  0.065  0.089   -0.072 -0.010 -0.015   -0.223 -0.038 -0.051
 H          0.197 -0.113  0.047    0.266 -0.154  0.064    0.600 -0.352  0.144
 H         -0.125 -0.061  0.076   -0.152 -0.072  0.092   -0.372 -0.180  0.227
 TransDip   0.030 -0.045 -0.026    0.175  0.100 -0.100   -0.102  0.183 -0.021

 Mode:                37                     38                     39
 Frequency:      3013.52                3026.32                3029.53
 Force Cnst:      5.8380                 5.9045                 5.9812
 Red. Mass:       1.0911                 1.0942                 1.1061
 IR Active:          YES                    YES                    YES
 IR Intens:       33.808                 10.382                 11.970
 Raman Active:       YES                    YES                    YES
               X      Y      Z        X      Y      Z        X      Y      Z
 C         -0.003  0.019 -0.001   -0.007  0.010  0.005    0.005 -0.041  0.004
 C          0.009 -0.019  0.001   -0.012  0.019 -0.004   -0.015  0.050  0.003
 C          0.034 -0.036  0.023    0.035 -0.036  0.026   -0.007  0.007 -0.004
 C         -0.035  0.023  0.034    0.036 -0.024 -0.038   -0.008  0.005  0.007
 C         -0.020  0.006  0.006   -0.020  0.008  0.010   -0.052  0.007  0.008
 C          0.017  0.000 -0.005   -0.011  0.006 -0.002    0.036  0.003 -0.011
 H          0.067 -0.078 -0.051    0.075 -0.089 -0.059   -0.131  0.154  0.105
 H         -0.032 -0.147  0.067   -0.006 -0.032  0.015    0.075  0.335 -0.151
 H          0.012  0.133  0.056   -0.010 -0.110 -0.048   -0.040 -0.407 -0.172
 H         -0.116  0.100 -0.069    0.140 -0.120  0.085    0.216 -0.183  0.133
 H         -0.404  0.417 -0.279   -0.401  0.412 -0.279    0.074 -0.078  0.052
 H          0.402 -0.274 -0.409   -0.414  0.283  0.424    0.087 -0.059 -0.089
 H          0.101 -0.087 -0.107    0.124 -0.107 -0.133    0.188 -0.164 -0.206
 H          0.137  0.025  0.035    0.120  0.022  0.032    0.430  0.082  0.111
 H         -0.088  0.055 -0.022    0.109 -0.067  0.029   -0.164  0.102 -0.045
 H         -0.116 -0.062  0.077    0.019  0.009 -0.014   -0.267 -0.144  0.174
 TransDip   0.012 -0.020  0.185    0.079 -0.065 -0.016   -0.085  0.068  0.017

 Mode:                40                     41                     42
 Frequency:      3034.05                3049.39                3055.56
 Force Cnst:      5.9825                 6.0601                 6.0781
 Red. Mass:       1.1030                 1.1061                 1.1049
 IR Active:          YES                    YES                    YES
 IR Intens:        8.506                 44.492                 68.972
 Raman Active:       YES                    YES                    YES
               X      Y      Z        X      Y      Z        X      Y      Z
 C         -0.002  0.028 -0.003    0.008 -0.061  0.004   -0.006  0.046 -0.003
 C          0.015 -0.051 -0.003    0.010 -0.036 -0.003   -0.008  0.033  0.003
 C         -0.017  0.017 -0.011    0.006 -0.005  0.003   -0.012  0.012 -0.007
 C          0.015 -0.010 -0.014   -0.002  0.002  0.002   -0.013  0.009  0.012
 C         -0.055  0.007  0.008   -0.027  0.003  0.004   -0.036  0.003  0.004
 C          0.025  0.003 -0.007   -0.052 -0.003  0.014   -0.057 -0.004  0.015
 H          0.088 -0.099 -0.069   -0.207  0.243  0.166    0.159 -0.183 -0.127
 H         -0.051 -0.229  0.101    0.108  0.483 -0.217   -0.081 -0.360  0.161
 H          0.042  0.418  0.176    0.030  0.297  0.126   -0.027 -0.276 -0.116
 H         -0.230  0.193 -0.141   -0.149  0.128 -0.092    0.135 -0.111  0.083
 H          0.190 -0.195  0.132   -0.062  0.062 -0.043    0.127 -0.130  0.088
 H         -0.171  0.117  0.175    0.028 -0.020 -0.030    0.139 -0.096 -0.143
 H          0.199 -0.176 -0.220    0.097 -0.082 -0.105    0.120 -0.108 -0.134
 H          0.453  0.087  0.116    0.225  0.043  0.059    0.310  0.059  0.079
 H         -0.111  0.073 -0.031    0.256 -0.160  0.071    0.283 -0.181  0.079
 H         -0.184 -0.099  0.118    0.364  0.197 -0.237    0.395  0.213 -0.257
 TransDip  -0.029 -0.000 -0.089   -0.103 -0.178  0.059   -0.211  0.156  0.042

 STANDARD THERMODYNAMIC QUANTITIES AT   298.15 K  AND     1.00 ATM

   This Molecule has  0 Imaginary Frequencies
   Zero point vibrational energy:       88.496 kcal/mol

   Atom    1 Element C  Has Mass   12.00000
   Atom    2 Element C  Has Mass   12.00000
   Atom    3 Element C  Has Mass   12.00000
   Atom    4 Element C  Has Mass   12.00000
   Atom    5 Element C  Has Mass   12.00000
   Atom    6 Element C  Has Mass   12.00000
   Atom    7 Element H  Has Mass    1.00783
   Atom    8 Element H  Has Mass    1.00783
   Atom    9 Element H  Has Mass    1.00783
   Atom   10 Element H  Has Mass    1.00783
   Atom   11 Element H  Has Mass    1.00783
   Atom   12 Element H  Has Mass    1.00783
   Atom   13 Element H  Has Mass    1.00783
   Atom   14 Element H  Has Mass    1.00783
   Atom   15 Element H  Has Mass    1.00783
   Atom   16 Element H  Has Mass    1.00783
   Molecular Mass:    82.078300 amu
   Principal axes and moments of inertia in amu*Bohr^2:
                             1           2           3
    Eigenvalues --      295.14228   464.10327   597.31952
          X               0.65598     0.03109     0.75414
          Y               0.74831    -0.15731    -0.64443
          Z               0.09860     0.98706    -0.12645
   Rotational Symmetry Number is   1
   The Molecule is an Asymmetric Top
   Translational Enthalpy:        0.889 kcal/mol
   Rotational Enthalpy:           0.889 kcal/mol
   Vibrational Enthalpy:         90.178 kcal/mol
   gas constant (RT):             0.592 kcal/mol
   Translational Entropy:        39.129  cal/mol.K
   Rotational Entropy:           25.906  cal/mol.K
   Vibrational Entropy:           9.178  cal/mol.K

   Total Enthalpy:               92.548 kcal/mol
   Total Entropy:                74.213  cal/mol.K
 Total job time:  54.14s(wall), 215.35s(cpu) 
 Tue Jul 11 08:36:09 2023

        *************************************************************
        *                                                           *
        *  Thank you very much for using Q-Chem.  Have a nice day.  *
        *                                                           *
        *************************************************************


