                  Welcome to Q-Chem
     A Quantum Leap Into The Future Of Chemistry


 Q-Chem 6.0 (devel), Q-Chem, Inc., Pleasanton, CA (2022)

 E. Epifanovsky,  A. T. B. Gilbert,  Xintian Feng,  Joonho Lee,  Yuezhi Mao,  
 N. Mardirossian,  P. Pokhilko,  A. White,  M. Wormit,  M. P. Coons,  
 A. L. Dempwolff,  Zhengting Gan,  D. Hait,  P. R. Horn,  L. D. Jacobson,  
 I. Kaliman,  J. Kussmann,  A. W. Lange,  Ka Un Lao,  D. S. Levine,  Jie Liu,  
 S. C. McKenzie,  A. F. Morrison,  K. Nanda,  F. Plasser,  D. R. Rehn,  
 M. L. Vidal,  Zhi-Qiang You,  Ying Zhu,  B. Alam,  B. Albrecht,  
 A. Aldossary,  E. Alguire,  J. H. Andersen,  V. Athavale,  D. Barton,  
 K. Begam,  A. Behn,  N. Bellonzi,  Y. A. Bernard,  E. J. Berquist,  
 H. Burton,  A. Carreras,  K. Carter-Fenk,  Romit Chakraborty,  
 Chandrima Chakravarty,  Junhan Chen,  A. D. Chien,  K. D. Closser,  
 V. Cofer-Shabica,  L. Cunha,  S. Dasgupta,  Jia Deng,  M. de Wergifosse,  
 M. Diedenhofen,  Hainam Do,  S. Ehlert,  Po-Tung Fang,  S. Fatehi,  
 Qingguo Feng,  T. Friedhoff,  B. Ganoe,  J. Gayvert,  Qinghui Ge,  
 G. Gidofalvi,  M. Goldey,  J. Gomes,  C. Gonzalez-Espinoza,  S. Gulania,  
 A. Gunina,  J. A. Gyamfi,  M. W. D. Hanson-Heine,  P. H. P. Harbach,  
 A. W. Hauser,  M. F. Herbst,  M. Hernandez Vera,  M. Hodecker,  
 Z. C. Holden,  S. Houck,  Xunkun Huang,  Kerwin Hui,  B. C. Huynh,  
 K. Ikeda,  M. Ivanov,  Hyunjun Ji,  Zuxin Jin,  Hanjie Jiang,  B. Kaduk,  
 S. Kaehler,  R. Kang,  K. Khistyaev,  Jaehoon Kim,  Yongbin Kim,  
 P. Klunzinger,  Z. Koczor-Benda,  Joong Hoon Koh,  D. Kosenkov,  
 Saikiran Kotaru,  L. Koulias,  T. Kowalczyk,  C. M. Krauter,  K. Kue,  
 A. Kunitsa,  T. Kus,  A. Landau,  K. V. Lawler,  D. Lefrancois,  S. Lehtola,  
 Rain Li,  Shaozhi Li,  Yi-Pei Li,  Jiashu Liang,  M. Liebenthal,  
 Hung-Hsuan Lin,  You-Sheng Lin,  Fenglai Liu,  Kuan-Yu Liu,  
 M. Loipersberger,  A. Luenser,  C. Malbon,  A. Manjanath,  P. Manohar,  
 E. Mansoor,  S. F. Manzer,  Shan-Ping Mao,  A. V. Marenich,  T. Markovich,  
 S. Mason,  F. Matz,  S. A. Maurer,  P. F. McLaughlin,  M. F. S. J. Menger,  
 J.-M. Mewes,  S. A. Mewes,  P. Morgante,  Mohammad Mostafanejad,  
 J. W. Mullinax,  K. J. Oosterbaan,  G. Paran,  V. Parravicini,  
 Alexander C. Paul,  Suranjan K. Paul,  F. Pavosevic,  Zheng Pei,  S. Prager,  
 E. I. Proynov,  E. Ramos,  B. Rana,  A. E. Rask,  A. Rettig,  R. M. Richard,  
 F. Rob,  E. Rossomme,  T. Scheele,  M. Scheurer,  M. Schneider,  
 P. E. Schneider,  N. Sergueev,  S. M. Sharada,  Hengyuan Shen,  
 W. Skomorowski,  D. W. Small,  C. J. Stein,  Yingli Su,  Yu-Chuan Su,  
 E. J. Sundstrom,  Zhen Tao,  J. Thirman,  Hung-Yi Tsai,  T. Tsuchimochi,  
 N. M. Tubman,  C. Utku,  S. P. Veccham,  O. Vydrov,  J. Wenzel,  
 Jonathan Wong,  J. Witte,  A. Yamada,  Chou-Hsun Yang,  Kun Yao,  
 S. Yeganeh,  S. R. Yost,  A. Zech,  F. Zeller,  Igor Ying Zhang,  
 Xing Zhang,  Yu Zhang,  D. Zuev,  A. Aspuru-Guzik,  A. T. Bell,  
 N. A. Besley,  K. B. Bravaya,  B. R. Brooks,  D. Casanova,  Jeng-Da Chai,  
 Hsing-Ta Chen,  S. Coriani,  C. J. Cramer,  A. E. DePrince, III,  
 R. A. DiStasio Jr.,  A. Dreuw,  B. D. Dunietz,  T. R. Furlani,  
 W. A. Goddard III,  S. Grimme,  S. Hammes-Schiffer,  T. Head-Gordon,  
 W. J. Hehre,  Chao-Ping Hsu,  T.-C. Jagau,  Yousung Jung,  A. Klamt,  
 Jing Kong,  D. S. Lambrecht,  Xiangyuan Li,  WanZhen Liang,  N. J. Mayhall,  
 C. W. McCurdy,  J. B. Neaton,  T. Neudecker,  C. Ochsenfeld,  
 J. A. Parkhill,  R. Peverati,  V. A. Rassolov,  Haisheng Ren,  Yihan Shao,  
 L. V. Slipchenko,  R. P. Steele,  J. E. Subotnik,  A. J. W. Thom,  
 A. Tkatchenko,  D. G. Truhlar,  T. Van Voorhis,  Fan Wang,  
 T. A. Wesolowski,  K. B. Whaley,  H. L. Woodcock III,  P. M. Zimmerman,  
 S. Faraji,  P. M. W. Gill,  M. Head-Gordon,  J. M. Herbert,  A. I. Krylov

 Contributors to earlier versions of Q-Chem not listed above: 
 R. D. Adamson,  B. Austin,  R. Baer,  J. Baker,  G. J. O. Beran,  
 K. Brandhorst,  S. T. Brown,  E. F. C. Byrd,  Arup K. Chakraborty,  
 G. K. L. Chan,  Chun-Min Chang,  Yunqing Chen,  C.-L. Cheng,  
 Siu Hung Chien,  D. M. Chipman,  D. L. Crittenden,  H. Dachsel,  
 R. J. Doerksen,  A. D. Dutoi,  R. G. Edgar,  J. Fosso-Tande,  
 L. Fusti-Molnar,  D. Ghosh,  A. Ghysels,  A. Golubeva-Zadorozhnaya,  
 J. Gonthier,  M. S. Gordon,  S. R. Gwaltney,  G. Hawkins,  J. E. Herr,  
 A. Heyden,  S. Hirata,  E. G. Hohenstein,  G. Kedziora,  F. J. Keil,  
 C. Kelley,  Jihan Kim,  R. A. King,  R. Z. Khaliullin,  P. P. Korambath,  
 W. Kurlancheek,  A. Laurent,  A. M. Lee,  M. S. Lee,  S. V. Levchenko,  
 Ching Yeh Lin,  D. Liotard,  E. Livshits,  R. C. Lochan,  I. Lotan,  
 L. A. Martinez-Martinez,  P. E. Maslen,  N. Nair,  D. P. O'Neill,  
 D. Neuhauser,  E. Neuscamman,  C. M. Oana,  R. Olivares-Amaya,  R. Olson,  
 T. M. Perrine,  B. Peters,  P. A. Pieniazek,  A. Prociuk,  Y. M. Rhee,  
 J. Ritchie,  M. A. Rohrdanz,  E. Rosta,  N. J. Russ,  H. F. Schaefer III,  
 M. W. Schmidt,  N. E. Schultz,  S. Sharma,  N. Shenvi,  C. D. Sherrill,  
 A. C. Simmonett,  A. Sodt,  T. Stein,  D. Stuck,  K. S. Thanthiriwatte,  
 V. Vanovschi,  L. Vogt,  Tao Wang,  A. Warshel,  M. A. Watson,  
 C. F. Williams,  Q. Wu,  X. Xu,  Jun Yang,  W. Zhang,  Yan Zhao

   Please cite Q-Chem as follows:
  "Software for the frontiers of quantum chemistry:
   An overview of developments in the Q-Chem 5 package"
   J. Chem. Phys. 155, 084801 (2021)
   https://doi.org/10.1063/5.0055522 (open access)

 Q-Chem 6.0.0 for Intel X86 EM64T Linux

 Parts of Q-Chem use Armadillo 9.900.5 (Nocturnal Misbehaviour).
 http://arma.sourceforge.net/

 Q-Chem begins on Tue Jul 11 08:31:54 2023  

 Host: 
0

     Scratch files written to /mnt/scratch/hwang/qchem982397//
 Processing $rem in /opt/qchem-6.0.0/config/preferences:
 Processing $rem in /home/hwang/.qchemrc:

 Checking the input file for inconsistencies... 	...done.

--------------------------------------------------------------
User input:
--------------------------------------------------------------
$comment
   ASE generated input file
$end

$rem
   METHOD                      PBE
   BASIS                       CC-PVDZ
   JOBTYPE                     OPT
   DFT_D                       D3_BJ
   GEOM_OPT_MAX_CYCLES         150
   USE_LIBQINTS                1
   MAX_SCF_CYCLES              150
   SYM_IGNORE                  TRUE
$end

$molecule
   0 1
   C  0.998480  0.824250  -0.676730
   C  1.060280  0.806200  0.815230
   C  -0.533710  0.531940  -0.600880
   C  -0.335680  0.226670  0.777580
   C  -0.906080  -0.961170  -0.792590
   C  -0.428600  -1.283510  0.580210
   H  1.542600  -0.023250  -1.155770
   H  1.290300  1.820470  -1.079810
   H  0.979340  1.850730  1.193790
   H  1.861350  0.212790  1.305660
   H  -0.682340  0.761050  -1.635440
   H  -1.103230  0.627320  1.477120
   H  -0.389230  -1.521120  -1.605100
   H  -2.017170  -1.030600  -0.860240
   H  0.580950  -1.752600  0.549270
   H  -1.190680  -1.811070  1.193590
$end

--------------------------------------------------------------
 Adding empirical dispersion correction 
 ----------------------------------------------------------------
 Doing -D3(BJ) with
 s6  =   1.00000
 s8  =   0.78750
 a1  =   0.42890
 a2  =   4.44070
 -D3 energy without 3body term =     -0.0138914730 hartrees
 ----------------------------------------------------------------
             Standard Nuclear Orientation (Angstroms)
    I     Atom           X                Y                Z
 ----------------------------------------------------------------
    1      C       0.9984800000     0.8242500000    -0.6767300000
    2      C       1.0602800000     0.8062000000     0.8152300000
    3      C      -0.5337100000     0.5319400000    -0.6008800000
    4      C      -0.3356800000     0.2266700000     0.7775800000
    5      C      -0.9060800000    -0.9611700000    -0.7925900000
    6      C      -0.4286000000    -1.2835100000     0.5802100000
    7      H       1.5426000000    -0.0232500000    -1.1557700000
    8      H       1.2903000000     1.8204700000    -1.0798100000
    9      H       0.9793400000     1.8507300000     1.1937900000
   10      H       1.8613500000     0.2127900000     1.3056600000
   11      H      -0.6823400000     0.7610500000    -1.6354400000
   12      H      -1.1032300000     0.6273200000     1.4771200000
   13      H      -0.3892300000    -1.5211200000    -1.6051000000
   14      H      -2.0171700000    -1.0306000000    -0.8602400000
   15      H       0.5809500000    -1.7526000000     0.5492700000
   16      H      -1.1906800000    -1.8110700000     1.1935900000
 ----------------------------------------------------------------
 Nuclear Repulsion Energy =         249.46057192 hartrees
 There are       23 alpha and       23 beta electrons
 Requested basis set is cc-pVDZ
 There are 66 shells and 134 basis functions

 Total QAlloc Memory Limit   2000 MB
 Mega-Array Size       188 MB
 MEM_STATIC part       192 MB

 -----------------------------------------------------------------------
                STARTING GEOMETRY OPTIMIZER USING LIBOPT3
                by Peter F. McLaughlin, Yu Zhang, Evgeny Epifanovsky
 -----------------------------------------------------------------------

              Initial Energy and Gradient Calculation
  Checking Topology for Ill-Behaving Coordinates
	**Ill-Behaving Angle: 4 3 11 **
		Will be redefined as a Co-Linear Angle.
	**Ill-Behaving Torsion: 2  4  3  11 **
		Will be redefined as a Co-Linear Angle.
		In addition adding a Torsion Angle.
	**Ill-Behaving Torsion: 6  4  3  11 **
		Will be redefined as a Co-Linear Angle.
		In addition adding a Torsion Angle.
	**Ill-Behaving Torsion: 12  4  3  11 **
		Will be redefined as a Co-Linear Angle.
		In addition adding a Torsion Angle.
  Done Checking Topology
 Adding empirical dispersion correction 
 ----------------------------------------------------------------
 Doing -D3(BJ) with
 s6  =   1.00000
 s8  =   0.78750
 a1  =   0.42890
 a2  =   4.44070
 -D3 energy without 3body term =     -0.0138914730 hartrees
 ----------------------------------------------------------------
             Standard Nuclear Orientation (Angstroms)
    I     Atom           X                Y                Z
 ----------------------------------------------------------------
    1      C       0.9984800000     0.8242500000    -0.6767300000
    2      C       1.0602800000     0.8062000000     0.8152300000
    3      C      -0.5337100000     0.5319400000    -0.6008800000
    4      C      -0.3356800000     0.2266700000     0.7775800000
    5      C      -0.9060800000    -0.9611700000    -0.7925900000
    6      C      -0.4286000000    -1.2835100000     0.5802100000
    7      H       1.5426000000    -0.0232500000    -1.1557700000
    8      H       1.2903000000     1.8204700000    -1.0798100000
    9      H       0.9793400000     1.8507300000     1.1937900000
   10      H       1.8613500000     0.2127900000     1.3056600000
   11      H      -0.6823400000     0.7610500000    -1.6354400000
   12      H      -1.1032300000     0.6273200000     1.4771200000
   13      H      -0.3892300000    -1.5211200000    -1.6051000000
   14      H      -2.0171700000    -1.0306000000    -0.8602400000
   15      H       0.5809500000    -1.7526000000     0.5492700000
   16      H      -1.1906800000    -1.8110700000     1.1935900000
 ----------------------------------------------------------------
 Nuclear Repulsion Energy =         249.46057192 hartrees
 There are       23 alpha and       23 beta electrons
 Requested basis set is cc-pVDZ
 There are 66 shells and 134 basis functions
 A cutoff of  1.0D-12 yielded   2198 shell pairs
 There are      9122 function pairs (      9977 Cartesian)
 Smallest overlap matrix eigenvalue = 9.17E-04

 Scale SEOQF with 1.000000e-01/1.000000e-01/1.000000e-01

 Standard Electronic Orientation quadrupole field applied
 Nucleus-field energy     =     0.0000000008 hartrees
 Guess from superposition of atomic densities
 Warning:  Energy on first SCF cycle will be non-variational
 SAD guess density has 46.000000 electrons

 -----------------------------------------------------------------------
  General SCF calculation program by
  Eric Jon Sundstrom, Paul Horn, Yuezhi Mao, Dmitri Zuev, Alec White,
  David Stuck, Shaama M.S., Shane Yost, Joonho Lee, David Small,
  Daniel Levine, Susi Lehtola, Hugh Burton, Evgeny Epifanovsky,
  Bang C. Huynh
 -----------------------------------------------------------------------
 Exchange:  PBE      Correlation:  PBE
 Using SG-1 standard quadrature grid
 Dispersion:   Grimme D3
 A restricted SCF calculation will be
 performed using DIIS
 SCF converges when DIIS error is below 1.0e-08
 ---------------------------------------
  Cycle       Energy         DIIS error
 ---------------------------------------
    1    -235.5202153541      6.61e-02  
    2    -233.9464993828      9.67e-03  
    3    -233.4921981826      1.70e-02  
    4    -234.1862275498      1.52e-03  
    5    -234.1899980235      7.52e-04  
    6    -234.1911476907      1.91e-04  
    7    -234.1912225917      6.19e-05  
    8    -234.1912314286      1.26e-05  
    9    -234.1912317659      3.77e-06  
   10    -234.1912318016      4.99e-07  
   11    -234.1912318021      2.24e-07  
   12    -234.1912318022      7.56e-08  
   13    -234.1912318022      6.88e-09  Convergence criterion met
 ---------------------------------------
 SCF time:   CPU 9.89s  wall 3.00s 
 SCF   energy in the final basis set =     -234.1912318022
 Total energy in the final basis set =     -234.1912318022

 --------------------------------------------------------------

                    Orbital Energies (a.u.)
 --------------------------------------------------------------

 Alpha MOs
 -- Occupied --
 -9.9042  -9.8873  -9.8864  -9.8863  -9.8857  -9.8750  -0.8326  -0.6991
 -0.6147  -0.5668  -0.5217  -0.4554  -0.4480  -0.4222  -0.4077  -0.3727
 -0.3294  -0.3136  -0.3014  -0.2885  -0.2594  -0.2280  -0.1879
 -- Virtual --
  0.0116   0.0324   0.0434   0.0634   0.0835   0.0877   0.1062   0.1212
  0.1291   0.1525   0.1584   0.1763   0.1790   0.1944   0.2113   0.2915
  0.3052   0.3596   0.3733   0.4008   0.4106   0.4210   0.4595   0.4833
  0.5025   0.5087   0.5122   0.5453   0.5664   0.5817   0.5940   0.6022
  0.6050   0.6114   0.6227   0.6257   0.6310   0.6405   0.6665   0.6681
  0.6919   0.7010   0.7346   0.7469   0.7999   0.8861   0.9594   1.0600
  1.0668   1.1095   1.1228   1.1728   1.1849   1.2033   1.2772   1.3406
  1.3593   1.3716   1.3851   1.4297   1.4458   1.4666   1.4888   1.4900
  1.5226   1.5308   1.5609   1.5684   1.5791   1.6000   1.6096   1.6211
  1.6367   1.6517   1.6621   1.6770   1.6882   1.7278   1.7876   1.8007
  1.8413   1.8489   1.8566   1.8957   1.9110   1.9480   1.9552   1.9747
  1.9966   2.0317   2.0443   2.0597   2.0881   2.1115   2.1231   2.1492
  2.1666   2.2127   2.2883   2.3244   2.3312   2.3692   2.3919   2.4122
  2.4471   2.4978   2.5510   2.6595   2.7378   2.7665   2.9910
 --------------------------------------------------------------

          Ground-State Mulliken Net Atomic Charges

     Atom                 Charge (a.u.)
  ----------------------------------------
      1 C                    -0.025999
      2 C                     0.049420
      3 C                    -0.042946
      4 C                    -0.057251
      5 C                    -0.010115
      6 C                     0.043421
      7 H                     0.008907
      8 H                     0.018565
      9 H                     0.018258
     10 H                     0.010672
     11 H                    -0.026067
     12 H                    -0.034528
     13 H                     0.002687
     14 H                     0.022062
     15 H                     0.009293
     16 H                     0.013622
  ----------------------------------------
  Sum of atomic charges =     0.000000

 -----------------------------------------------------------------
                    Cartesian Multipole Moments
 -----------------------------------------------------------------
    Charge (ESU x 10^10)
                 0.0000
    Dipole Moment (Debye)
         X       0.1824      Y      -0.2294      Z      -0.1753
       Tot       0.3415
    Quadrupole Moments (Debye-Ang)
        XX     -38.7764     XY       0.5023     YY     -38.8732
        XZ      -0.3506     YZ       0.1179     ZZ     -39.2600
    Octopole Moments (Debye-Ang^2)
       XXX      -1.9435    XXY      -3.0384    XYY       2.1522
       YYY       2.5821    XXZ       1.6939    XYZ       0.0165
       YYZ       0.6495    XZZ      -0.3342    YZZ       0.4106
       ZZZ      -2.5902
    Hexadecapole Moments (Debye-Ang^3)
      XXXX    -226.5190   XXXY     -57.9453   XXYY     -80.7563
      XYYY     -56.1212   YYYY    -255.1905   XXXZ     -13.6210
      XXYZ      -1.1244   XYYZ      -7.8621   YYYZ       0.5952
      XXZZ     -74.8086   XYZZ     -20.7446   YYZZ     -79.1370
      XZZZ     -13.7800   YZZZ      -2.1752   ZZZZ    -213.9044
 -----------------------------------------------------------------
 Calculating analytic gradient of the SCF energy
 Call libqints based aoints job 111
 Call libqints based aoints job 120
 Gradient of SCF Energy
            1           2           3           4           5           6
    1  -0.0259326  -0.0046280  -0.0330401   0.0315114  -0.0011856  -0.0018390
    2   0.0122027  -0.0101094   0.0308576  -0.0152820   0.0175492   0.0101191
    3   0.0230107  -0.0335112   0.1251074  -0.1230376   0.0299597  -0.0214338
            7           8           9          10          11          12
    1  -0.0060904   0.0024095  -0.0086612   0.0023064   0.0516249  -0.0046518
    2  -0.0076094   0.0076288   0.0048693  -0.0048027  -0.0546136   0.0023503
    3   0.0039714   0.0084725  -0.0045116  -0.0034825   0.0100136  -0.0130300
           13          14          15          16
    1   0.0080949  -0.0045433   0.0062604  -0.0116356
    2  -0.0000015   0.0005107   0.0029497   0.0033812
    3   0.0056847   0.0056145  -0.0085462  -0.0042816
 Max gradient component =       1.251E-01
 RMS gradient           =       3.069E-02
 Gradient time:  CPU 15.13 s  wall 3.79 s

 *****************************************************
             Starting BFGS Algorithm
 *****************************************************
            LIBOPT3 RUN PARAMETERS

  Geometry Optimization Coordinates :
	Delocalized Natural Internal Coordinates

  Step Length Selection Method :
	Eigenvector Following Algorithm

  Convergence Criteria :
	Max Gradient Component    	3.00000000e-04
	Max Displacement Component	1.20000000e-03
	Absolute Energy Difference	1.00000000e-06

  Initial Hessian :
	Approximate Hessian - Simple Internal Coordinate Scaled

  Type of Verification :
	Verify with final updated Hessian
 *****************************************************

	OPTIMIZATION CYCLE:	1

 Scaling Magnitude of Eigenvalues
 	Minimum: -25.00000000	 Maximum: 25.00000000
 42 Hessian Eigenvalues to form next step
   0.10024161   0.10333852   0.11486488   0.11618021   0.11920711
   0.12037270   0.12111218   0.12523402   0.12804974   0.12867105
   0.12984413   0.13241204   0.13510707   0.13636655   0.13733818
   0.13885850   0.14164910   0.14347934   0.14519498   0.14743075
   0.14919175   0.15933391   0.18935349   0.26113771   0.36157331
   0.37060775   0.39075431   0.41696212   0.46616514   0.49317989
   0.49667882   0.50000000   0.50000000   0.50000000   0.50000000
   0.50000000   0.50000000   0.50000000   0.50000000   0.53827063
   0.54813387   0.56567149

 Minimum Search taking a RFO step
 Searching for Lambda that minimizes along all modes
	Value of Lambda  -0.04939912
	Norm of Stepsize  0.36372895
	RMS of Stepsize  0.05612460

	Performing Iterative Coordinate Back-Transformation

	  Starting from Previous Position

	  iter:	0	rms: 5.3948876962e-02	maxdev: 1.4858575970e-01
	  iter:	1	rms: 9.2729502994e-04	maxdev: 2.7999639113e-03
	  iter:	2	rms: 5.7174829719e-07	maxdev: 2.2933264137e-06	 Success!

	Finished Iterative Coordinate Back-Transformation
 Adding empirical dispersion correction 
 ----------------------------------------------------------------
 Doing -D3(BJ) with
 s6  =   1.00000e+00
 s8  =   7.87500e-01
 a1  =   4.28900e-01
 a2  =   4.44070e+00
 -D3 energy without 3body term =     -1.3686092011e-02 hartrees
 ----------------------------------------------------------------
             Standard Nuclear Orientation (Angstroms)
    I     Atom           X                Y                Z
 ----------------------------------------------------------------
    1      C       1.0129612475     0.8150516780    -0.6960449169
    2      C       1.0663975220     0.8210931474     0.8412083037
    3      C      -0.5491737251     0.5412917237    -0.6478795933
    4      C      -0.3536325158     0.2412271172     0.8318743416
    5      C      -0.9074608154    -0.9780232547    -0.8276414315
    6      C      -0.4354791464    -1.2896743839     0.5949960508
    7      H       1.5631751020    -0.0286523320    -1.1723730201
    8      H       1.3117836602     1.7957098537    -1.1199370158
    9      H       1.0113102079     1.8602087727     1.2287949734
   10      H       1.8587574700     0.2260851895     1.3379221629
   11      H      -0.7434161787     0.8144158803    -1.6800380691
   12      H      -1.1019106363     0.6357299028     1.5561654107
   13      H      -0.3941978872    -1.5317319728    -1.6471701778
   14      H      -2.0125439873    -1.0616553618    -0.9103117806
   15      H       0.5718093884    -1.7534580972     0.5742979121
   16      H      -1.1717997057    -1.8295178630     1.2220268500
 ----------------------------------------------------------------
 Nuclear Repulsion Energy =         244.60056202 hartrees
 There are       23 alpha and       23 beta electrons
 Applying Cartesian multipole field
    Component          Value
    ---------          -----
     (2,0,0)        1.00000E-11
     (0,2,0)        2.00000E-11
     (0,0,2)       -3.00000E-11
 Nucleus-field energy     = 5.4494829985e-10 hartrees
 Requested basis set is cc-pVDZ
 There are 66 shells and 134 basis functions
 A cutoff of  1.0D-12 yielded   2197 shell pairs
 There are      9113 function pairs (      9968 Cartesian)
 Smallest overlap matrix eigenvalue = 1.08E-03
 Guess MOs from SCF MO coefficient file

 -----------------------------------------------------------------------
  General SCF calculation program by
  Eric Jon Sundstrom, Paul Horn, Yuezhi Mao, Dmitri Zuev, Alec White,
  David Stuck, Shaama M.S., Shane Yost, Joonho Lee, David Small,
  Daniel Levine, Susi Lehtola, Hugh Burton, Evgeny Epifanovsky,
  Bang C. Huynh
 -----------------------------------------------------------------------
 Exchange:  PBE      Correlation:  PBE
 Using SG-1 standard quadrature grid
 Dispersion:   Grimme D3
 A restricted SCF calculation will be
 performed using DIIS
 SCF converges when DIIS error is below 1.0e-08
 ---------------------------------------
  Cycle       Energy         DIIS error
 ---------------------------------------
    1    -234.2233536353      1.07e-03  
    2    -234.2273750726      4.62e-04  
    3    -234.2271317290      5.64e-04  
    4    -234.2278462051      4.25e-05  
    5    -234.2278508775      1.09e-05  
    6    -234.2278511016      5.62e-06  
    7    -234.2278511726      7.30e-07  
    8    -234.2278511739      2.23e-07  
    9    -234.2278511740      5.92e-08  
   10    -234.2278511740      1.44e-08  
   11    -234.2278511740      2.33e-09  Convergence criterion met
 ---------------------------------------
 SCF time:   CPU 9.17s  wall 3.00s 
 SCF   energy in the final basis set =     -234.2278511740
 Total energy in the final basis set =     -234.2278511740

 --------------------------------------------------------------

                    Orbital Energies (a.u.)
 --------------------------------------------------------------

 Alpha MOs
 -- Occupied --
 -9.9133  -9.8910  -9.8906  -9.8885  -9.8883  -9.8862  -0.8049  -0.6821
 -0.6122  -0.5554  -0.5249  -0.4479  -0.4459  -0.4114  -0.4049  -0.3646
 -0.3285  -0.3068  -0.3004  -0.2844  -0.2570  -0.2327  -0.2019
 -- Virtual --
  0.0102   0.0363   0.0461   0.0647   0.0846   0.0882   0.1029   0.1173
  0.1263   0.1462   0.1527   0.1674   0.1723   0.1843   0.2027   0.2809
  0.2963   0.3573   0.3799   0.4025   0.4154   0.4287   0.4556   0.4806
  0.4934   0.5038   0.5119   0.5398   0.5565   0.5642   0.5861   0.5953
  0.6010   0.6139   0.6201   0.6271   0.6314   0.6327   0.6544   0.6619
  0.6643   0.6911   0.7250   0.7443   0.7863   0.8660   0.9490   1.0555
  1.0583   1.0915   1.1141   1.1585   1.1654   1.1894   1.2743   1.3208
  1.3498   1.3630   1.3723   1.4110   1.4407   1.4563   1.4669   1.4755
  1.5210   1.5284   1.5593   1.5667   1.5824   1.5965   1.6004   1.6081
  1.6227   1.6276   1.6409   1.6700   1.6879   1.7187   1.7650   1.7812
  1.8001   1.8197   1.8405   1.8799   1.8914   1.9224   1.9356   1.9541
  1.9825   2.0098   2.0311   2.0440   2.0699   2.0825   2.1009   2.1205
  2.1321   2.1854   2.2780   2.3126   2.3264   2.3640   2.3841   2.3936
  2.4305   2.4750   2.5277   2.6352   2.7023   2.7265   2.8713
 --------------------------------------------------------------

          Ground-State Mulliken Net Atomic Charges

     Atom                 Charge (a.u.)
  ----------------------------------------
      1 C                    -0.030227
      2 C                     0.045244
      3 C                    -0.051912
      4 C                    -0.069323
      5 C                    -0.011634
      6 C                     0.035140
      7 H                     0.013396
      8 H                     0.020175
      9 H                     0.020950
     10 H                     0.014570
     11 H                    -0.023932
     12 H                    -0.023104
     13 H                     0.006854
     14 H                     0.022067
     15 H                     0.014452
     16 H                     0.017285
  ----------------------------------------
  Sum of atomic charges =     0.000000

 -----------------------------------------------------------------
                    Cartesian Multipole Moments
 -----------------------------------------------------------------
    Charge (ESU x 10^10)
                -0.0000
    Dipole Moment (Debye)
         X       0.1602      Y      -0.1973      Z      -0.0288
       Tot       0.2558
    Quadrupole Moments (Debye-Ang)
        XX     -38.9390     XY       0.4082     YY     -39.0041
        XZ      -0.3863     YZ       0.0949     ZZ     -38.7651
    Octopole Moments (Debye-Ang^2)
       XXX      -1.3327    XXY      -2.8308    XYY       2.1931
       YYY       2.1492    XXZ       1.6773    XYZ       0.0410
       YYZ       0.8447    XZZ      -0.4873    YZZ       0.5167
       ZZZ      -2.0524
    Hexadecapole Moments (Debye-Ang^3)
      XXXX    -230.8205   XXXY     -58.9819   XXYY     -82.0656
      XYYY     -57.0567   YYYY    -259.1813   XXXZ     -14.5880
      XXYZ      -1.2424   XYYZ      -8.0605   YYYZ      -0.6082
      XXZZ     -76.3850   XYZZ     -20.7150   YYZZ     -80.7176
      XZZZ     -15.1018   YZZZ      -2.5715   ZZZZ    -225.2318
 -----------------------------------------------------------------
 Calculating analytic gradient of the SCF energy
 Call libqints based aoints job 111
 Call libqints based aoints job 120
 Gradient of SCF Energy
            1           2           3           4           5           6
    1  -0.0086688   0.0068125  -0.0460062   0.0230118  -0.0080972   0.0026095
    2   0.0109288  -0.0029941   0.0480958  -0.0144852   0.0057143  -0.0065025
    3  -0.0018180  -0.0063961   0.0678836  -0.0518726   0.0029842  -0.0007978
            7           8           9          10          11          12
    1  -0.0044927   0.0017677  -0.0068584   0.0013940   0.0439505  -0.0046513
    2  -0.0055853   0.0040972   0.0021767  -0.0022442  -0.0475479   0.0021830
    3   0.0013936   0.0057561  -0.0013571  -0.0028219  -0.0024030  -0.0061798
           13          14          15          16
    1   0.0050363  -0.0020232   0.0029426  -0.0067269
    2  -0.0000439   0.0008275   0.0023566   0.0030232
    3   0.0018626   0.0034536  -0.0075126  -0.0021749
 Max gradient component =       6.788E-02
 RMS gradient           =       1.911E-02
 Gradient time:  CPU 14.96 s  wall 3.74 s

     Step 1	:
        Energy is -234.2278511740
                            Maximum         Tolerance       Converged?
         Gradient           2.91142538e-02	3.00000000e-04	false
         Displacement       1.48198290e-01	1.20000000e-03	false
         Energy change      3.66193718e-02	1.00000000e-06	false


	OPTIMIZATION CYCLE:	2

 Scaling Magnitude of Eigenvalues
 	Minimum: -25.00000000	 Maximum: 25.00000000
 42 Hessian Eigenvalues to form next step
   0.09736964   0.10026978   0.10584607   0.11562566   0.11823434
   0.12025398   0.12040366   0.12412295   0.12667343   0.12862223
   0.12994483   0.13008223   0.13325541   0.13604516   0.13667953
   0.13763283   0.13937768   0.14328980   0.14471224   0.14728038
   0.14916168   0.15899115   0.18823576   0.19945142   0.33796478
   0.37060243   0.38824460   0.41699634   0.46620956   0.49369832
   0.49643731   0.49717222   0.50000000   0.50000000   0.50000000
   0.50000000   0.50000000   0.50000000   0.50426987   0.54343768
   0.55431790   0.57328205

 Minimum Search taking a RFO step
 Searching for Lambda that minimizes along all modes
	Value of Lambda  -0.03056561
	Norm of Stepsize  0.43650597
	RMS of Stepsize  0.06735433

	Performing Iterative Coordinate Back-Transformation

	  Starting from Previous Position

	  iter:	0	rms: 5.6929466591e-02	maxdev: 1.7187247277e-01
	  iter:	1	rms: 1.8525599747e-03	maxdev: 8.7388145731e-03
	  iter:	2	rms: 3.3226832278e-06	maxdev: 1.5183400035e-05
	  iter:	3	rms: 1.5444926334e-11	maxdev: 9.4947264373e-11	 Success!

	Finished Iterative Coordinate Back-Transformation
 Adding empirical dispersion correction 
 ----------------------------------------------------------------
 Doing -D3(BJ) with
 s6  =   1.00000e+00
 s8  =   7.87500e-01
 a1  =   4.28900e-01
 a2  =   4.44070e+00
 -D3 energy without 3body term =     -1.3550920578e-02 hartrees
 ----------------------------------------------------------------
             Standard Nuclear Orientation (Angstroms)
    I     Atom           X                Y                Z
 ----------------------------------------------------------------
    1      C       1.0241096422     0.7917659567    -0.7085491203
    2      C       1.0595365013     0.8262367282     0.8566053425
    3      C      -0.5607611954     0.5462845016    -0.6938925358
    4      C      -0.3809520316     0.2623505314     0.8760577349
    5      C      -0.8951660601    -0.9919910637    -0.8563047478
    6      C      -0.4379595164    -1.2843560031     0.6010078616
    7      H       1.5816165491    -0.0456049364    -1.1813957059
    8      H       1.3364826103     1.7555582500    -1.1507602527
    9      H       1.0459711855     1.8623467704     1.2449218051
   10      H       1.8360606062     0.2239478733     1.3649146440
   11      H      -0.8342275674     0.9027244093    -1.7047102820
   12      H      -1.0954671787     0.6449624010     1.6235486417
   13      H      -0.3852716708    -1.5358753416    -1.6821082305
   14      H      -1.9935278825    -1.1020255743    -0.9504576032
   15      H       0.5709029316    -1.7357993048     0.6073543750
   16      H      -1.1447669236    -1.8424251981     1.2396580734
 ----------------------------------------------------------------
 Nuclear Repulsion Energy =         241.49094831 hartrees
 There are       23 alpha and       23 beta electrons
 Applying Cartesian multipole field
    Component          Value
    ---------          -----
     (2,0,0)        1.00000E-11
     (0,2,0)        2.00000E-11
     (0,0,2)       -3.00000E-11
 Nucleus-field energy     = 3.2641089075e-10 hartrees
 Requested basis set is cc-pVDZ
 There are 66 shells and 134 basis functions
 A cutoff of  1.0D-12 yielded   2197 shell pairs
 There are      9113 function pairs (      9968 Cartesian)
 Smallest overlap matrix eigenvalue = 1.17E-03
 Guess MOs from SCF MO coefficient file

 -----------------------------------------------------------------------
  General SCF calculation program by
  Eric Jon Sundstrom, Paul Horn, Yuezhi Mao, Dmitri Zuev, Alec White,
  David Stuck, Shaama M.S., Shane Yost, Joonho Lee, David Small,
  Daniel Levine, Susi Lehtola, Hugh Burton, Evgeny Epifanovsky,
  Bang C. Huynh
 -----------------------------------------------------------------------
 Exchange:  PBE      Correlation:  PBE
 Using SG-1 standard quadrature grid
 Dispersion:   Grimme D3
 A restricted SCF calculation will be
 performed using DIIS
 SCF converges when DIIS error is below 1.0e-08
 ---------------------------------------
  Cycle       Energy         DIIS error
 ---------------------------------------
    1    -234.2465983114      9.90e-04  
    2    -234.2504007232      2.44e-04  
    3    -234.2502305852      3.66e-04  
    4    -234.2505334094      3.00e-05  
    5    -234.2505357713      5.26e-06  
    6    -234.2505358378      2.05e-06  
    7    -234.2505358471      6.35e-07  
    8    -234.2505358480      1.65e-07  
    9    -234.2505358480      5.85e-08  
   10    -234.2505358481      1.23e-08  
   11    -234.2505358481      1.47e-09  Convergence criterion met
 ---------------------------------------
 SCF time:   CPU 8.89s  wall 2.00s 
 SCF   energy in the final basis set =     -234.2505358481
 Total energy in the final basis set =     -234.2505358481

 --------------------------------------------------------------

                    Orbital Energies (a.u.)
 --------------------------------------------------------------

 Alpha MOs
 -- Occupied --
 -9.9170  -9.8962  -9.8933  -9.8932  -9.8900  -9.8889  -0.7861  -0.6709
 -0.6102  -0.5485  -0.5267  -0.4485  -0.4420  -0.4050  -0.3999  -0.3582
 -0.3275  -0.3047  -0.2951  -0.2819  -0.2548  -0.2346  -0.2180
 -- Virtual --
  0.0109   0.0399   0.0488   0.0660   0.0845   0.0913   0.1001   0.1148
  0.1244   0.1350   0.1521   0.1619   0.1678   0.1805   0.1990   0.2712
  0.2895   0.3556   0.3842   0.4035   0.4235   0.4343   0.4511   0.4758
  0.4905   0.5004   0.5131   0.5303   0.5492   0.5527   0.5795   0.5906
  0.5998   0.6108   0.6165   0.6236   0.6304   0.6348   0.6475   0.6594
  0.6609   0.6942   0.7223   0.7415   0.7770   0.8620   0.9383   1.0490
  1.0568   1.0781   1.1173   1.1485   1.1556   1.1864   1.2811   1.2976
  1.3410   1.3521   1.3622   1.3965   1.4321   1.4451   1.4520   1.4652
  1.5227   1.5361   1.5586   1.5615   1.5825   1.5902   1.6000   1.6016
  1.6108   1.6273   1.6344   1.6705   1.6913   1.7193   1.7468   1.7611
  1.7820   1.7967   1.8344   1.8570   1.8941   1.8979   1.9212   1.9446
  1.9700   2.0001   2.0227   2.0365   2.0455   2.0637   2.0783   2.1054
  2.1187   2.1710   2.2739   2.3060   2.3270   2.3634   2.3768   2.3938
  2.4322   2.4664   2.5221   2.6059   2.6718   2.6987   2.8367
 --------------------------------------------------------------

          Ground-State Mulliken Net Atomic Charges

     Atom                 Charge (a.u.)
  ----------------------------------------
      1 C                    -0.027112
      2 C                     0.044036
      3 C                    -0.061502
      4 C                    -0.070182
      5 C                    -0.001866
      6 C                     0.025584
      7 H                     0.015822
      8 H                     0.019746
      9 H                     0.020667
     10 H                     0.016143
     11 H                    -0.024814
     12 H                    -0.021932
     13 H                     0.009262
     14 H                     0.020299
     15 H                     0.017514
     16 H                     0.018334
  ----------------------------------------
  Sum of atomic charges =     0.000000

 -----------------------------------------------------------------
                    Cartesian Multipole Moments
 -----------------------------------------------------------------
    Charge (ESU x 10^10)
                 0.0000
    Dipole Moment (Debye)
         X       0.1266      Y      -0.1471      Z       0.0770
       Tot       0.2088
    Quadrupole Moments (Debye-Ang)
        XX     -39.0294     XY       0.2843     YY     -39.0490
        XZ      -0.3826     YZ       0.0279     ZZ     -38.3219
    Octopole Moments (Debye-Ang^2)
       XXX      -0.6453    XXY      -2.4843    XYY       2.1089
       YYY       1.8495    XXZ       1.5389    XYZ       0.1306
       YYZ       0.9732    XZZ      -0.6729    YZZ       0.6678
       ZZZ      -1.1291
    Hexadecapole Moments (Debye-Ang^3)
      XXXX    -232.8111   XXXY     -58.5229   XXYY     -82.3407
      XYYY     -56.5411   YYYY    -260.3440   XXXZ     -15.1890
      XXYZ      -1.4688   XYYZ      -7.7980   YYYZ      -1.9255
      XXZZ     -77.2219   XYZZ     -20.4929   YYZZ     -81.3918
      XZZZ     -15.8889   YZZZ      -3.1735   ZZZZ    -233.8849
 -----------------------------------------------------------------
 Calculating analytic gradient of the SCF energy
 Call libqints based aoints job 111
 Call libqints based aoints job 120
 Gradient of SCF Energy
            1           2           3           4           5           6
    1   0.0057080   0.0121309  -0.0486490   0.0075056  -0.0069287   0.0038708
    2   0.0051298   0.0017075   0.0529098  -0.0061289  -0.0054627  -0.0160385
    3  -0.0129620   0.0075980   0.0397969  -0.0057247  -0.0105199   0.0075361
            7           8           9          10          11          12
    1  -0.0029280   0.0007493  -0.0049252   0.0003593   0.0318887   0.0009700
    2  -0.0024695   0.0006078  -0.0008211  -0.0000841  -0.0352068  -0.0003899
    3  -0.0004214   0.0039267   0.0005658  -0.0024410  -0.0175174  -0.0052932
           13          14          15          16
    1   0.0015963   0.0005778  -0.0002865  -0.0016394
    2   0.0006461   0.0008831   0.0015955   0.0031220
    3  -0.0003692   0.0021660  -0.0059891  -0.0003516
 Max gradient component =       5.291E-02
 RMS gradient           =       1.482E-02
 Gradient time:  CPU 14.97 s  wall 3.74 s

     Step 2	:
        Energy is -234.2505358481
                            Maximum         Tolerance       Converged?
         Gradient           1.99034227e-02	3.00000000e-04	false
         Displacement       1.88772040e-01	1.20000000e-03	false
         Energy change      2.26846740e-02	1.00000000e-06	false


	OPTIMIZATION CYCLE:	3

 Scaling Magnitude of Eigenvalues
 	Minimum: -25.00000000	 Maximum: 25.00000000
 42 Hessian Eigenvalues to form next step
   0.06178085   0.10026571   0.10433431   0.11555302   0.11794167
   0.12013711   0.12038695   0.12405279   0.12617325   0.12851831
   0.12960153   0.13017554   0.13321994   0.13652388   0.13671632
   0.13755421   0.13928652   0.14348955   0.14509429   0.14730244
   0.14918046   0.15815273   0.17476138   0.19008256   0.32739809
   0.37061962   0.38848131   0.41702026   0.46622099   0.49293723
   0.49700123   0.49979961   0.50000000   0.50000000   0.50000000
   0.50000000   0.50000000   0.50040299   0.51140905   0.54602573
   0.55656725   0.65383753

 Minimum Search taking a RFO step
 Searching for Lambda that minimizes along all modes
	Value of Lambda  -0.01870373
	Norm of Stepsize  0.45703453
	RMS of Stepsize  0.07052196

	Performing Iterative Coordinate Back-Transformation

	  Starting from Previous Position

	  iter:	0	rms: 5.1063778298e-02	maxdev: 1.7575099801e-01
	  iter:	1	rms: 2.3967507503e-03	maxdev: 1.2015367757e-02
	  iter:	2	rms: 3.7903808670e-06	maxdev: 1.5334391273e-05
	  iter:	3	rms: 1.9979764705e-11	maxdev: 1.0479159235e-10	 Success!

	Finished Iterative Coordinate Back-Transformation
 Adding empirical dispersion correction 
 ----------------------------------------------------------------
 Doing -D3(BJ) with
 s6  =   1.00000e+00
 s8  =   7.87500e-01
 a1  =   4.28900e-01
 a2  =   4.44070e+00
 -D3 energy without 3body term =     -1.3484028102e-02 hartrees
 ----------------------------------------------------------------
             Standard Nuclear Orientation (Angstroms)
    I     Atom           X                Y                Z
 ----------------------------------------------------------------
    1      C       1.0316271019     0.7666786540    -0.7163547287
    2      C       1.0445348728     0.8253746499     0.8600451200
    3      C      -0.5576666591     0.5382611391    -0.7364065124
    4      C      -0.4029156030     0.2787443621     0.9043763074
    5      C      -0.8778010199    -1.0013885530    -0.8770870034
    6      C      -0.4394251140    -1.2713598331     0.5993858882
    7      H       1.6021672613    -0.0616125817    -1.1844913662
    8      H       1.3551769842     1.7196627117    -1.1714745267
    9      H       1.0728041009     1.8629027941     1.2399319353
   10      H       1.8059235916     0.2171005135     1.3842214110
   11      H      -0.9231797344     0.9935596204    -1.6940396834
   12      H      -1.0846018464     0.6472073640     1.6751957809
   13      H      -0.3729114428    -1.5415975304    -1.7058849284
   14      H      -1.9722372108    -1.1358448890    -0.9779175220
   15      H       0.5720455382    -1.7127305127     0.6441741291
   16      H      -1.1269608204    -1.8468579090     1.2422156992
 ----------------------------------------------------------------
 Nuclear Repulsion Energy =         240.15594566 hartrees
 There are       23 alpha and       23 beta electrons
 Applying Cartesian multipole field
    Component          Value
    ---------          -----
     (2,0,0)        1.00000E-11
     (0,2,0)        2.00000E-11
     (0,0,2)       -3.00000E-11
 Nucleus-field energy     = 1.5519689548e-10 hartrees
 Requested basis set is cc-pVDZ
 There are 66 shells and 134 basis functions
 A cutoff of  1.0D-12 yielded   2197 shell pairs
 There are      9113 function pairs (      9968 Cartesian)
 Smallest overlap matrix eigenvalue = 1.19E-03
 Guess MOs from SCF MO coefficient file

 -----------------------------------------------------------------------
  General SCF calculation program by
  Eric Jon Sundstrom, Paul Horn, Yuezhi Mao, Dmitri Zuev, Alec White,
  David Stuck, Shaama M.S., Shane Yost, Joonho Lee, David Small,
  Daniel Levine, Susi Lehtola, Hugh Burton, Evgeny Epifanovsky,
  Bang C. Huynh
 -----------------------------------------------------------------------
 Exchange:  PBE      Correlation:  PBE
 Using SG-1 standard quadrature grid
 Dispersion:   Grimme D3
 A restricted SCF calculation will be
 performed using DIIS
 SCF converges when DIIS error is below 1.0e-08
 ---------------------------------------
  Cycle       Energy         DIIS error
 ---------------------------------------
    1    -234.2617088450      8.55e-04  
    2    -234.2645630022      1.13e-04  
    3    -234.2645309473      1.65e-04  
    4    -234.2645922349      2.20e-05  
    5    -234.2645934271      4.50e-06  
    6    -234.2645934689      2.04e-06  
    7    -234.2645934786      2.55e-07  
    8    -234.2645934788      7.70e-08  
    9    -234.2645934788      3.68e-08  
   10    -234.2645934788      8.61e-09  Convergence criterion met
 ---------------------------------------
 SCF time:   CPU 8.57s  wall 2.00s 
 SCF   energy in the final basis set =     -234.2645934788
 Total energy in the final basis set =     -234.2645934788

 --------------------------------------------------------------

                    Orbital Energies (a.u.)
 --------------------------------------------------------------

 Alpha MOs
 -- Occupied --
 -9.9159  -9.9029  -9.8941  -9.8937  -9.8913  -9.8897  -0.7772  -0.6658
 -0.6106  -0.5442  -0.5277  -0.4507  -0.4400  -0.4026  -0.3957  -0.3544
 -0.3270  -0.3034  -0.2906  -0.2820  -0.2515  -0.2373  -0.2300
 -- Virtual --
  0.0138   0.0417   0.0502   0.0677   0.0865   0.0933   0.0985   0.1133
  0.1220   0.1270   0.1528   0.1611   0.1660   0.1797   0.1998   0.2669
  0.2871   0.3540   0.3855   0.4042   0.4301   0.4361   0.4473   0.4743
  0.4890   0.5020   0.5110   0.5250   0.5442   0.5507   0.5719   0.5855
  0.5987   0.6080   0.6165   0.6242   0.6319   0.6370   0.6451   0.6595
  0.6601   0.6989   0.7224   0.7378   0.7693   0.8729   0.9295   1.0461
  1.0537   1.0702   1.1259   1.1412   1.1530   1.1896   1.2774   1.2956
  1.3278   1.3477   1.3564   1.3888   1.4259   1.4363   1.4466   1.4678
  1.5227   1.5419   1.5557   1.5585   1.5761   1.5818   1.5977   1.6089
  1.6117   1.6319   1.6395   1.6750   1.6855   1.7259   1.7394   1.7509
  1.7747   1.7964   1.8247   1.8486   1.8825   1.9001   1.9125   1.9383
  1.9579   2.0009   2.0179   2.0252   2.0354   2.0630   2.0734   2.0981
  2.1222   2.1647   2.2708   2.3001   2.3269   2.3624   2.3754   2.3951
  2.4385   2.4654   2.5255   2.5609   2.6646   2.6841   2.8526
 --------------------------------------------------------------

          Ground-State Mulliken Net Atomic Charges

     Atom                 Charge (a.u.)
  ----------------------------------------
      1 C                    -0.018768
      2 C                     0.045236
      3 C                    -0.070830
      4 C                    -0.068558
      5 C                     0.014029
      6 C                     0.017499
      7 H                     0.016429
      8 H                     0.019274
      9 H                     0.019395
     10 H                     0.015613
     11 H                    -0.027825
     12 H                    -0.027067
     13 H                     0.010267
     14 H                     0.019061
     15 H                     0.018471
     16 H                     0.017774
  ----------------------------------------
  Sum of atomic charges =     0.000000

 -----------------------------------------------------------------
                    Cartesian Multipole Moments
 -----------------------------------------------------------------
    Charge (ESU x 10^10)
                -0.0000
    Dipole Moment (Debye)
         X       0.0965      Y      -0.1017      Z       0.1142
       Tot       0.1809
    Quadrupole Moments (Debye-Ang)
        XX     -39.0457     XY       0.2185     YY     -39.0236
        XZ      -0.3497     YZ      -0.0507     ZZ     -38.0554
    Octopole Moments (Debye-Ang^2)
       XXX      -0.3283    XXY      -2.1045    XYY       1.9024
       YYY       1.9447    XXZ       1.3256    XYZ       0.2258
       YYZ       0.9903    XZZ      -0.8452    YZZ       0.7972
       ZZZ       0.0528
    Hexadecapole Moments (Debye-Ang^3)
      XXXX    -232.6747   XXXY     -57.4906   XXYY     -81.7894
      XYYY     -55.4931   YYYY    -259.3568   XXXZ     -15.1837
      XXYZ      -1.7915   XYYZ      -7.1880   YYYZ      -3.1267
      XXZZ     -77.4648   XYZZ     -20.3000   YYZZ     -81.4267
      XZZZ     -16.0919   YZZZ      -3.6843   ZZZZ    -239.5863
 -----------------------------------------------------------------
 Calculating analytic gradient of the SCF energy
 Call libqints based aoints job 111
 Call libqints based aoints job 120
 Gradient of SCF Energy
            1           2           3           4           5           6
    1   0.0125224   0.0102578  -0.0406099  -0.0036546  -0.0024224   0.0028352
    2  -0.0013436   0.0032509   0.0453361   0.0010186  -0.0104925  -0.0165303
    3  -0.0154920   0.0121472   0.0210553   0.0225146  -0.0148150   0.0079188
            7           8           9          10          11          12
    1  -0.0016244   0.0003147  -0.0030567  -0.0003547   0.0190977   0.0065119
    2   0.0002335  -0.0009747  -0.0021104   0.0007823  -0.0217819  -0.0030904
    3  -0.0014491   0.0024060   0.0014609  -0.0017502  -0.0253766  -0.0058152
           13          14          15          16
    1  -0.0011303   0.0014257  -0.0017113   0.0015987
    2   0.0015416   0.0003464   0.0010148   0.0027998
    3  -0.0015471   0.0014890  -0.0040240   0.0012777
 Max gradient component =       4.534E-02
 RMS gradient           =       1.263E-02
 Gradient time:  CPU 14.94 s  wall 3.74 s

     Step 3	:
        Energy is -234.2645934788
                            Maximum         Tolerance       Converged?
         Gradient           1.96527649e-02	3.00000000e-04	false
         Displacement       2.05812237e-01	1.20000000e-03	false
         Energy change      1.40576307e-02	1.00000000e-06	false


	OPTIMIZATION CYCLE:	4

 Scaling Magnitude of Eigenvalues
 	Minimum: -25.00000000	 Maximum: 25.00000000
 42 Hessian Eigenvalues to form next step
   0.03906983   0.10030066   0.10437474   0.11552513   0.11787488
   0.12020366   0.12041887   0.12451451   0.12595498   0.12848471
   0.12952453   0.13033946   0.13330276   0.13652403   0.13701372
   0.13757076   0.13961297   0.14353601   0.14609431   0.14833065
   0.14917750   0.15707130   0.16870313   0.18978160   0.32182397
   0.37072798   0.38907833   0.41707308   0.46623924   0.49236809
   0.49700574   0.49991880   0.50000000   0.50000000   0.50000000
   0.50000000   0.50001100   0.50049765   0.51180848   0.54694656
   0.55825102   0.66800098

 Minimum Search taking a RFO step
 Searching for Lambda that minimizes along all modes
	Value of Lambda  -0.01301065
	Norm of Stepsize  0.45127779
	RMS of Stepsize  0.06963367

	Performing Iterative Coordinate Back-Transformation

	  Starting from Previous Position

	  iter:	0	rms: 4.2806470232e-02	maxdev: 1.5320199919e-01
	  iter:	1	rms: 2.6301625633e-03	maxdev: 1.1492629227e-02
	  iter:	2	rms: 2.6249730945e-06	maxdev: 1.0797189589e-05
	  iter:	3	rms: 9.0845599938e-12	maxdev: 3.7581198773e-11	 Success!

	Finished Iterative Coordinate Back-Transformation
 Adding empirical dispersion correction 
 ----------------------------------------------------------------
 Doing -D3(BJ) with
 s6  =   1.00000e+00
 s8  =   7.87500e-01
 a1  =   4.28900e-01
 a2  =   4.44070e+00
 -D3 energy without 3body term =     -1.3466738664e-02 hartrees
 ----------------------------------------------------------------
             Standard Nuclear Orientation (Angstroms)
    I     Atom           X                Y                Z
 ----------------------------------------------------------------
    1      C       1.0368467037     0.7479428369    -0.7210306183
    2      C       1.0279752053     0.8221384517     0.8536114010
    3      C      -0.5398346670     0.5184741966    -0.7730793190
    4      C      -0.4141970928     0.2864137623     0.9125511202
    5      C      -0.8606251204    -1.0075049514    -0.8896849753
    6      C      -0.4417910730    -1.2568877829     0.5938170427
    7      H       1.6269316710    -0.0681970005    -1.1843731977
    8      H       1.3630914336     1.6979518749    -1.1832054617
    9      H       1.0900547250     1.8643602174     1.2186891223
   10      H       1.7794545774     0.2140029189     1.3959664358
   11      H      -0.9948142980     1.0712281112    -1.6479652040
   12      H      -1.0726387847     0.6416693049     1.7063039034
   13      H      -0.3629327497    -1.5556775711    -1.7165187065
   14      H      -1.9543830686    -1.1547722964    -0.9932850615
   15      H       0.5690921059    -1.6973495248     0.6832402776
   16      H      -1.1256495680    -1.8456925476     1.2308532408
 ----------------------------------------------------------------
 Nuclear Repulsion Energy =         240.17899255 hartrees
 There are       23 alpha and       23 beta electrons
 Applying Cartesian multipole field
    Component          Value
    ---------          -----
     (2,0,0)        1.00000E-11
     (0,2,0)        2.00000E-11
     (0,0,2)       -3.00000E-11
 Requested basis set is cc-pVDZ
 There are 66 shells and 134 basis functions
 A cutoff of  1.0D-12 yielded   2197 shell pairs
 There are      9113 function pairs (      9968 Cartesian)
 Smallest overlap matrix eigenvalue = 1.16E-03
 Guess MOs from SCF MO coefficient file

 -----------------------------------------------------------------------
  General SCF calculation program by
  Eric Jon Sundstrom, Paul Horn, Yuezhi Mao, Dmitri Zuev, Alec White,
  David Stuck, Shaama M.S., Shane Yost, Joonho Lee, David Small,
  Daniel Levine, Susi Lehtola, Hugh Burton, Evgeny Epifanovsky,
  Bang C. Huynh
 -----------------------------------------------------------------------
 Exchange:  PBE      Correlation:  PBE
 Using SG-1 standard quadrature grid
 Dispersion:   Grimme D3
 A restricted SCF calculation will be
 performed using DIIS
 SCF converges when DIIS error is below 1.0e-08
 ---------------------------------------
  Cycle       Energy         DIIS error
 ---------------------------------------
    1    -234.2723365513      7.41e-04  
    2    -234.2743964249      9.87e-05  
    3    -234.2743737035      1.40e-04  
    4    -234.2744189780      1.67e-05  
    5    -234.2744196394      5.31e-06  
    6    -234.2744196992      1.78e-06  
    7    -234.2744197064      3.99e-07  
    8    -234.2744197068      1.66e-07  
    9    -234.2744197068      3.11e-08  
   10    -234.2744197069      6.65e-09  Convergence criterion met
 ---------------------------------------
 SCF time:   CPU 8.67s  wall 2.00s 
 SCF   energy in the final basis set =     -234.2744197069
 Total energy in the final basis set =     -234.2744197069

 --------------------------------------------------------------

                    Orbital Energies (a.u.)
 --------------------------------------------------------------

 Alpha MOs
 -- Occupied --
 -9.9120  -9.9063  -9.8937  -9.8930  -9.8920  -9.8904  -0.7760  -0.6654
 -0.6125  -0.5417  -0.5282  -0.4514  -0.4398  -0.4022  -0.3943  -0.3532
 -0.3272  -0.3023  -0.2876  -0.2843  -0.2535  -0.2398  -0.2323
 -- Virtual --
  0.0184   0.0408   0.0507   0.0696   0.0897   0.0936   0.0990   0.1125
  0.1165   0.1278   0.1541   0.1631   0.1671   0.1803   0.2042   0.2684
  0.2892   0.3519   0.3848   0.4043   0.4259   0.4422   0.4485   0.4768
  0.4868   0.5037   0.5060   0.5276   0.5429   0.5526   0.5662   0.5829
  0.5980   0.6093   0.6165   0.6238   0.6317   0.6379   0.6427   0.6589
  0.6618   0.7032   0.7240   0.7344   0.7617   0.8908   0.9244   1.0462
  1.0512   1.0643   1.1336   1.1374   1.1548   1.1927   1.2689   1.3068
  1.3162   1.3494   1.3609   1.3857   1.4244   1.4327   1.4451   1.4839
  1.5190   1.5435   1.5581   1.5612   1.5749   1.5775   1.5978   1.6138
  1.6192   1.6347   1.6518   1.6772   1.6819   1.7313   1.7396   1.7472
  1.7733   1.8038   1.8097   1.8507   1.8802   1.9040   1.9096   1.9361
  1.9610   2.0056   2.0106   2.0215   2.0377   2.0721   2.0797   2.0981
  2.1350   2.1627   2.2705   2.2901   2.3258   2.3608   2.3767   2.3944
  2.4443   2.4649   2.5145   2.5364   2.6699   2.6859   2.8718
 --------------------------------------------------------------

          Ground-State Mulliken Net Atomic Charges

     Atom                 Charge (a.u.)
  ----------------------------------------
      1 C                    -0.007253
      2 C                     0.047451
      3 C                    -0.082475
      4 C                    -0.068040
      5 C                     0.031594
      6 C                     0.011708
      7 H                     0.015767
      8 H                     0.019166
      9 H                     0.017877
     10 H                     0.013627
     11 H                    -0.029244
     12 H                    -0.033212
     13 H                     0.010059
     14 H                     0.018785
     15 H                     0.017648
     16 H                     0.016543
  ----------------------------------------
  Sum of atomic charges =     0.000000

 -----------------------------------------------------------------
                    Cartesian Multipole Moments
 -----------------------------------------------------------------
    Charge (ESU x 10^10)
                 0.0000
    Dipole Moment (Debye)
         X       0.0645      Y      -0.0604      Z       0.0954
       Tot       0.1300
    Quadrupole Moments (Debye-Ang)
        XX     -38.9968     XY       0.2103     YY     -38.9349
        XZ      -0.2972     YZ      -0.1329     ZZ     -38.0033
    Octopole Moments (Debye-Ang^2)
       XXX      -0.4935    XXY      -1.7242    XYY       1.5888
       YYY       2.3844    XXZ       1.1431    XYZ       0.3176
       YYZ       0.9542    XZZ      -0.9649    YZZ       0.8749
       ZZZ       1.3410
    Hexadecapole Moments (Debye-Ang^3)
      XXXX    -231.2112   XXXY     -56.6639   XXYY     -80.8611
      XYYY     -54.6785   YYYY    -257.4800   XXXZ     -14.6325
      XXYZ      -2.1050   XYYZ      -6.4318   YYYZ      -4.0533
      XXZZ     -77.2931   XYZZ     -20.2168   YYZZ     -81.1447
      XZZZ     -15.8434   YZZZ      -3.9183   ZZZZ    -242.3427
 -----------------------------------------------------------------
 Calculating analytic gradient of the SCF energy
 Call libqints based aoints job 111
 Call libqints based aoints job 120
 Gradient of SCF Energy
            1           2           3           4           5           6
    1   0.0119506   0.0033133  -0.0257778  -0.0064695   0.0019997   0.0005388
    2  -0.0058791   0.0024008   0.0294441   0.0037688  -0.0089038  -0.0104116
    3  -0.0123358   0.0108990   0.0057067   0.0347835  -0.0127214   0.0043059
            7           8           9          10          11          12
    1  -0.0005648   0.0003474  -0.0010372  -0.0007016   0.0078136   0.0089834
    2   0.0018180  -0.0009881  -0.0018236   0.0007605  -0.0095544  -0.0045971
    3  -0.0019699   0.0012151   0.0014411  -0.0007018  -0.0260290  -0.0043698
           13          14          15          16
    1  -0.0026850   0.0009729  -0.0016279   0.0029442
    2   0.0020960  -0.0004427   0.0006574   0.0016547
    3  -0.0021018   0.0012427  -0.0017115   0.0023469
 Max gradient component =       3.478E-02
 RMS gradient           =       9.872E-03
 Gradient time:  CPU 14.86 s  wall 3.72 s

     Step 4	:
        Energy is -234.2744197069
                            Maximum         Tolerance       Converged?
         Gradient           1.80562533e-02	3.00000000e-04	false
         Displacement       1.93572023e-01	1.20000000e-03	false
         Energy change      9.82622806e-03	1.00000000e-06	false


	OPTIMIZATION CYCLE:	5

 Scaling Magnitude of Eigenvalues
 	Minimum: -25.00000000	 Maximum: 25.00000000
 42 Hessian Eigenvalues to form next step
   0.02954804   0.10038050   0.10460664   0.11551004   0.11780649
   0.12027015   0.12052329   0.12479967   0.12580909   0.12845987
   0.12946297   0.13038117   0.13337422   0.13645706   0.13706158
   0.13757426   0.13987459   0.14336814   0.14640181   0.14883179
   0.14969246   0.15627017   0.16603886   0.18963270   0.31521869
   0.37091778   0.38922189   0.41707749   0.46606641   0.49157323
   0.49699710   0.49997336   0.50000000   0.50000000   0.50000000
   0.50000023   0.50003929   0.50014011   0.51153221   0.54585640
   0.55080994   0.57254363

 Minimum Search taking a RFO step
 Searching for Lambda that minimizes along all modes
	Value of Lambda  -0.00978043
	Norm of Stepsize  0.41493220
	RMS of Stepsize  0.06402543

	Performing Iterative Coordinate Back-Transformation

	  Starting from Previous Position

	  iter:	0	rms: 3.8195936497e-02	maxdev: 1.3609334504e-01
	  iter:	1	rms: 2.4300794443e-03	maxdev: 8.7800434773e-03
	  iter:	2	rms: 1.4979013436e-06	maxdev: 6.0844521558e-06
	  iter:	3	rms: 2.5351956883e-12	maxdev: 9.4168785166e-12	 Success!

	Finished Iterative Coordinate Back-Transformation
 Adding empirical dispersion correction 
 ----------------------------------------------------------------
 Doing -D3(BJ) with
 s6  =   1.00000e+00
 s8  =   7.87500e-01
 a1  =   4.28900e-01
 a2  =   4.44070e+00
 -D3 energy without 3body term =     -1.3484217130e-02 hartrees
 ----------------------------------------------------------------
             Standard Nuclear Orientation (Angstroms)
    I     Atom           X                Y                Z
 ----------------------------------------------------------------
    1      C       1.0413788187     0.7405370893    -0.7234973016
    2      C       1.0164932505     0.8187608462     0.8398235600
    3      C      -0.5117699037     0.4923710011    -0.7984460135
    4      C      -0.4144609260     0.2847384296     0.8981085630
    5      C      -0.8467114392    -1.0124474169    -0.8935190633
    6      C      -0.4455423919    -1.2466986664     0.5879580805
    7      H       1.6552224619    -0.0607623958    -1.1832065268
    8      H       1.3583943842     1.6947550400    -1.1877946618
    9      H       1.0967288479     1.8671546151     1.1887015430
   10      H       1.7656019840     0.2188286401     1.3998561238
   11      H      -1.0401470418     1.1265783244    -1.5712671595
   12      H      -1.0639668673     0.6305778197     1.7088991200
   13      H      -0.3581658232    -1.5811439317    -1.7126111190
   14      H      -1.9426027890    -1.1553661911    -0.9978742373
   15      H       0.5587568223    -1.6989812563     0.7212856369
   16      H      -1.1426293874    -1.8408019473     1.2094734557
 ----------------------------------------------------------------
 Nuclear Repulsion Energy =         241.15585374 hartrees
 There are       23 alpha and       23 beta electrons
 Applying Cartesian multipole field
    Component          Value
    ---------          -----
     (2,0,0)        1.00000E-11
     (0,2,0)        2.00000E-11
     (0,0,2)       -3.00000E-11
 Requested basis set is cc-pVDZ
 There are 66 shells and 134 basis functions
 A cutoff of  1.0D-12 yielded   2197 shell pairs
 There are      9113 function pairs (      9968 Cartesian)
 Smallest overlap matrix eigenvalue = 1.11E-03
 Guess MOs from SCF MO coefficient file

 -----------------------------------------------------------------------
  General SCF calculation program by
  Eric Jon Sundstrom, Paul Horn, Yuezhi Mao, Dmitri Zuev, Alec White,
  David Stuck, Shaama M.S., Shane Yost, Joonho Lee, David Small,
  Daniel Levine, Susi Lehtola, Hugh Burton, Evgeny Epifanovsky,
  Bang C. Huynh
 -----------------------------------------------------------------------
 Exchange:  PBE      Correlation:  PBE
 Using SG-1 standard quadrature grid
 Dispersion:   Grimme D3
 A restricted SCF calculation will be
 performed using DIIS
 SCF converges when DIIS error is below 1.0e-08
 ---------------------------------------
  Cycle       Energy         DIIS error
 ---------------------------------------
    1    -234.2800256487      6.70e-04  
    2    -234.2816409934      1.41e-04  
    3    -234.2815771489      2.16e-04  
    4    -234.2816852968      2.08e-05  
    5    -234.2816862437      9.30e-06  
    6    -234.2816864381      1.80e-06  
    7    -234.2816864453      4.98e-07  
    8    -234.2816864459      1.74e-07  
    9    -234.2816864459      2.62e-08  
   10    -234.2816864459      4.72e-09  Convergence criterion met
 ---------------------------------------
 SCF time:   CPU 8.20s  wall 2.00s 
 SCF   energy in the final basis set =     -234.2816864459
 Total energy in the final basis set =     -234.2816864459

 --------------------------------------------------------------

                    Orbital Energies (a.u.)
 --------------------------------------------------------------

 Alpha MOs
 -- Occupied --
 -9.9067  -9.9064  -9.8921  -9.8919  -9.8914  -9.8906  -0.7804  -0.6685
 -0.6144  -0.5409  -0.5286  -0.4502  -0.4413  -0.4028  -0.3960  -0.3537
 -0.3279  -0.3011  -0.2875  -0.2861  -0.2579  -0.2422  -0.2281
 -- Virtual --
  0.0255   0.0380   0.0509   0.0708   0.0923   0.0935   0.0999   0.1110
  0.1152   0.1317   0.1557   0.1659   0.1717   0.1819   0.2110   0.2746
  0.2949   0.3497   0.3832   0.4035   0.4231   0.4433   0.4527   0.4798
  0.4845   0.4973   0.5103   0.5321   0.5432   0.5566   0.5643   0.5851
  0.5976   0.6115   0.6168   0.6231   0.6303   0.6365   0.6417   0.6589
  0.6646   0.7044   0.7221   0.7358   0.7552   0.9117   0.9239   1.0489
  1.0509   1.0612   1.1362   1.1399   1.1578   1.1972   1.2762   1.3051
  1.3212   1.3556   1.3668   1.3861   1.4234   1.4330   1.4493   1.5072
  1.5138   1.5486   1.5612   1.5680   1.5761   1.5784   1.5942   1.6230
  1.6280   1.6401   1.6619   1.6768   1.6847   1.7327   1.7408   1.7570
  1.7763   1.8033   1.8114   1.8580   1.8825   1.9097   1.9115   1.9416
  1.9715   2.0112   2.0141   2.0219   2.0401   2.0759   2.0906   2.1103
  2.1501   2.1631   2.2631   2.2894   2.3244   2.3591   2.3766   2.3934
  2.4460   2.4700   2.4935   2.5453   2.6774   2.6968   2.8865
 --------------------------------------------------------------

          Ground-State Mulliken Net Atomic Charges

     Atom                 Charge (a.u.)
  ----------------------------------------
      1 C                     0.004828
      2 C                     0.049392
      3 C                    -0.092079
      4 C                    -0.070413
      5 C                     0.046277
      6 C                     0.008965
      7 H                     0.014149
      8 H                     0.019167
      9 H                     0.016446
     10 H                     0.011001
     11 H                    -0.029045
     12 H                    -0.037323
     13 H                     0.008674
     14 H                     0.019130
     15 H                     0.015512
     16 H                     0.015321
  ----------------------------------------
  Sum of atomic charges =     0.000000

 -----------------------------------------------------------------
                    Cartesian Multipole Moments
 -----------------------------------------------------------------
    Charge (ESU x 10^10)
                 0.0000
    Dipole Moment (Debye)
         X       0.0224      Y      -0.0149      Z       0.0539
       Tot       0.0602
    Quadrupole Moments (Debye-Ang)
        XX     -38.8835     XY       0.2171     YY     -38.7888
        XZ      -0.2414     YZ      -0.2116     ZZ     -38.1628
    Octopole Moments (Debye-Ang^2)
       XXX      -1.1226    XXY      -1.3687    XYY       1.2005
       YYY       3.0582    XXZ       1.0882    XYZ       0.3928
       YYZ       0.9258    XZZ      -1.0163    YZZ       0.9070
       ZZZ       2.5670
    Hexadecapole Moments (Debye-Ang^3)
      XXXX    -229.3391   XXXY     -56.5539   XXYY     -80.0255
      XYYY     -54.6190   YYYY    -255.8992   XXXZ     -13.6987
      XXYZ      -2.2921   XYYZ      -5.7261   YYYZ      -4.5474
      XXZZ     -76.8061   XYZZ     -20.2851   YYZZ     -80.7488
      XZZZ     -15.2582   YZZZ      -3.8049   ZZZZ    -241.8631
 -----------------------------------------------------------------
 Calculating analytic gradient of the SCF energy
 Call libqints based aoints job 111
 Call libqints based aoints job 120
 Gradient of SCF Energy
            1           2           3           4           5           6
    1   0.0057165  -0.0052123  -0.0097198  -0.0028747   0.0046625  -0.0018311
    2  -0.0072955   0.0000345   0.0120856   0.0019397  -0.0025139  -0.0006333
    3  -0.0051305   0.0057216  -0.0070322   0.0325471  -0.0057834  -0.0004080
            7           8           9          10          11          12
    1   0.0002064   0.0004319   0.0008994  -0.0005850   0.0006493   0.0086121
    2   0.0021671  -0.0001476  -0.0007271   0.0004422  -0.0013312  -0.0052388
    3  -0.0020495   0.0005710   0.0005948   0.0005179  -0.0207650  -0.0008038
           13          14          15          16
    1  -0.0029463   0.0000150  -0.0007747   0.0027510
    2   0.0019186  -0.0009410   0.0003440  -0.0001034
    3  -0.0021987   0.0013156   0.0005734   0.0023296
 Max gradient component =       3.255E-02
 RMS gradient           =       6.740E-03
 Gradient time:  CPU 14.69 s  wall 3.68 s

     Step 5	:
        Energy is -234.2816864459
                            Maximum         Tolerance       Converged?
         Gradient           1.69518983e-02	3.00000000e-04	false
         Displacement       1.70508810e-01	1.20000000e-03	false
         Energy change      7.26673909e-03	1.00000000e-06	false


	OPTIMIZATION CYCLE:	6

 Scaling Magnitude of Eigenvalues
 	Minimum: -25.00000000	 Maximum: 25.00000000
 42 Hessian Eigenvalues to form next step
   0.02703523   0.10044860   0.10503867   0.11542555   0.11772979
   0.12030320   0.12081702   0.12477856   0.12533041   0.12841913
   0.12935769   0.13038437   0.13339778   0.13599860   0.13701243
   0.13751977   0.13873699   0.14221702   0.14467135   0.14649762
   0.14952337   0.15666407   0.16449612   0.18937431   0.28603265
   0.37003989   0.38830133   0.41591065   0.43086552   0.46700977
   0.49696730   0.49722013   0.49998040   0.50000000   0.50000000
   0.50000016   0.50000044   0.50030210   0.50150811   0.51478294
   0.54838501   0.57453460

 Minimum Search taking a RFO step
 Searching for Lambda that minimizes along all modes
	Value of Lambda  -0.00703227
	Norm of Stepsize  0.34335358
	RMS of Stepsize  0.05298061

	Performing Iterative Coordinate Back-Transformation

	  Starting from Previous Position

	  iter:	0	rms: 3.9144863961e-02	maxdev: 1.7222625068e-01
	  iter:	1	rms: 1.6969525414e-03	maxdev: 5.7487767575e-03
	  iter:	2	rms: 5.9501530764e-07	maxdev: 3.0423707095e-06	 Success!

	Finished Iterative Coordinate Back-Transformation
 Adding empirical dispersion correction 
 ----------------------------------------------------------------
 Doing -D3(BJ) with
 s6  =   1.00000e+00
 s8  =   7.87500e-01
 a1  =   4.28900e-01
 a2  =   4.44070e+00
 -D3 energy without 3body term =     -1.3516628997e-02 hartrees
 ----------------------------------------------------------------
             Standard Nuclear Orientation (Angstroms)
    I     Atom           X                Y                Z
 ----------------------------------------------------------------
    1      C       1.0462579508     0.7441179577    -0.7242718182
    2      C       1.0158327840     0.8171197272     0.8239111229
    3      C      -0.4835051030     0.4683663307    -0.8049497956
    4      C      -0.4078392773     0.2780813447     0.8667125880
    5      C      -0.8376486266    -1.0189071405    -0.8906236598
    6      C      -0.4495581233    -1.2451568887     0.5837802464
    7      H       1.6812321802    -0.0432656761    -1.1824017218
    8      H       1.3443654656     1.7055792805    -1.1892714755
    9      H       1.0948320120     1.8710389084     1.1612882591
   10      H       1.7689063791     0.2306935843     1.3971972185
   11      H      -1.0594462402     1.1570636327    -1.4776454503
   12      H      -1.0642025075     0.6224655978     1.6812021934
   13      H      -0.3577527123    -1.6142477805    -1.6976218934
   14      H      -1.9365205594    -1.1428696091    -0.9973820364
   15      H       0.5432982927    -1.7180915348     0.7511519130
   16      H      -1.1716719147    -1.8338877342     1.1848143096
 ----------------------------------------------------------------
 Nuclear Repulsion Energy =         242.47289464 hartrees
 There are       23 alpha and       23 beta electrons
 Applying Cartesian multipole field
    Component          Value
    ---------          -----
     (2,0,0)        1.00000E-11
     (0,2,0)        2.00000E-11
     (0,0,2)       -3.00000E-11
 Nucleus-field energy     = 1.8928106854e-10 hartrees
 Requested basis set is cc-pVDZ
 There are 66 shells and 134 basis functions
 A cutoff of  1.0D-12 yielded   2197 shell pairs
 There are      9113 function pairs (      9968 Cartesian)
 Smallest overlap matrix eigenvalue = 1.06E-03
 Guess MOs from SCF MO coefficient file

 -----------------------------------------------------------------------
  General SCF calculation program by
  Eric Jon Sundstrom, Paul Horn, Yuezhi Mao, Dmitri Zuev, Alec White,
  David Stuck, Shaama M.S., Shane Yost, Joonho Lee, David Small,
  Daniel Levine, Susi Lehtola, Hugh Burton, Evgeny Epifanovsky,
  Bang C. Huynh
 -----------------------------------------------------------------------
 Exchange:  PBE      Correlation:  PBE
 Using SG-1 standard quadrature grid
 Dispersion:   Grimme D3
 A restricted SCF calculation will be
 performed using DIIS
 SCF converges when DIIS error is below 1.0e-08
 ---------------------------------------
  Cycle       Energy         DIIS error
 ---------------------------------------
    1    -234.2852714181      6.25e-04  
    2    -234.2866960684      1.70e-04  
    3    -234.2866056246      2.58e-04  
    4    -234.2867603596      1.77e-05  
    5    -234.2867609759      8.61e-06  
    6    -234.2867611444      1.58e-06  
    7    -234.2867611503      3.65e-07  
    8    -234.2867611506      1.15e-07  
    9    -234.2867611506      2.39e-08  
   10    -234.2867611506      1.91e-09  Convergence criterion met
 ---------------------------------------
 SCF time:   CPU 8.12s  wall 2.00s 
 SCF   energy in the final basis set =     -234.2867611506
 Total energy in the final basis set =     -234.2867611506

 --------------------------------------------------------------

                    Orbital Energies (a.u.)
 --------------------------------------------------------------

 Alpha MOs
 -- Occupied --
 -9.9034  -9.9015  -9.8910  -9.8902  -9.8902  -9.8897  -0.7874  -0.6734
 -0.6140  -0.5423  -0.5287  -0.4483  -0.4436  -0.4031  -0.3997  -0.3552
 -0.3283  -0.3002  -0.2896  -0.2869  -0.2582  -0.2432  -0.2265
 -- Virtual --
  0.0335   0.0375   0.0508   0.0711   0.0929   0.0936   0.1011   0.1115
  0.1157   0.1358   0.1573   0.1683   0.1769   0.1842   0.2174   0.2821
  0.3019   0.3480   0.3823   0.4025   0.4231   0.4431   0.4519   0.4819
  0.4836   0.4937   0.5135   0.5358   0.5432   0.5603   0.5662   0.5904
  0.5980   0.6138   0.6179   0.6233   0.6291   0.6336   0.6428   0.6598
  0.6677   0.7013   0.7160   0.7416   0.7525   0.9242   0.9370   1.0501
  1.0543   1.0644   1.1327   1.1461   1.1598   1.2037   1.2952   1.3054
  1.3306   1.3600   1.3677   1.3894   1.4250   1.4373   1.4529   1.5097
  1.5264   1.5552   1.5599   1.5720   1.5790   1.5850   1.5939   1.6246
  1.6411   1.6481   1.6659   1.6800   1.6864   1.7353   1.7503   1.7688
  1.7805   1.8106   1.8160   1.8722   1.8837   1.9112   1.9238   1.9479
  1.9836   2.0193   2.0219   2.0244   2.0376   2.0790   2.0956   2.1255
  2.1563   2.1664   2.2555   2.3003   2.3238   2.3569   2.3746   2.3964
  2.4443   2.4780   2.4976   2.5556   2.6850   2.7036   2.9016
 --------------------------------------------------------------

          Ground-State Mulliken Net Atomic Charges

     Atom                 Charge (a.u.)
  ----------------------------------------
      1 C                     0.013766
      2 C                     0.049655
      3 C                    -0.092463
      4 C                    -0.075061
      5 C                     0.053918
      6 C                     0.008795
      7 H                     0.012353
      8 H                     0.018872
      9 H                     0.015423
     10 H                     0.009078
     11 H                    -0.029725
     12 H                    -0.038807
     13 H                     0.006946
     14 H                     0.019365
     15 H                     0.013287
     16 H                     0.014597
  ----------------------------------------
  Sum of atomic charges =     0.000000

 -----------------------------------------------------------------
                    Cartesian Multipole Moments
 -----------------------------------------------------------------
    Charge (ESU x 10^10)
                -0.0000
    Dipole Moment (Debye)
         X      -0.0243      Y       0.0319      Z       0.0239
       Tot       0.0467
    Quadrupole Moments (Debye-Ang)
        XX     -38.7224     XY       0.1860     YY     -38.6134
        XZ      -0.1991     YZ      -0.2568     ZZ     -38.4626
    Octopole Moments (Debye-Ang^2)
       XXX      -1.9989    XXY      -1.0890    XYY       0.8128
       YYY       3.7617    XXZ       1.1830    XYZ       0.4217
       YYZ       0.9126    XZZ      -1.0072    YZZ       0.9192
       ZZZ       3.4897
    Hexadecapole Moments (Debye-Ang^3)
      XXXX    -228.1140   XXXY     -57.2622   XXYY     -79.7334
      XYYY     -55.4230   YYYY    -255.6810   XXXZ     -12.7107
      XXYZ      -2.3400   XYYZ      -5.2398   YYYZ      -4.6551
      XXZZ     -76.1249   XYZZ     -20.5168   YYZZ     -80.3730
      XZZZ     -14.5525   YZZZ      -3.5230   ZZZZ    -238.5363
 -----------------------------------------------------------------
 Calculating analytic gradient of the SCF energy
 Call libqints based aoints job 111
 Call libqints based aoints job 120
 Gradient of SCF Energy
            1           2           3           4           5           6
    1  -0.0024722  -0.0102129   0.0014506   0.0011484   0.0053437  -0.0029566
    2  -0.0060894  -0.0025717   0.0007927  -0.0013736   0.0041058   0.0082519
    3   0.0038968  -0.0016249  -0.0142221   0.0204247   0.0033329  -0.0048024
            7           8           9          10          11          12
    1   0.0007098   0.0002324   0.0020632   0.0000413  -0.0009257   0.0068489
    2   0.0015885   0.0007937   0.0003778   0.0002737   0.0011520  -0.0055423
    3  -0.0017834   0.0005022  -0.0006317   0.0015921  -0.0125210   0.0029739
           13          14          15          16
    1  -0.0023276  -0.0007122   0.0002217   0.0015471
    2   0.0007932  -0.0007095  -0.0001542  -0.0016885
    3  -0.0018695   0.0014356   0.0021995   0.0010974
 Max gradient component =       2.042E-02
 RMS gradient           =       5.078E-03
 Gradient time:  CPU 14.70 s  wall 3.68 s

     Step 6	:
        Energy is -234.2867611506
                            Maximum         Tolerance       Converged?
         Gradient           1.19746387e-02	3.00000000e-04	false
         Displacement       1.49456798e-01	1.20000000e-03	false
         Energy change      5.07470469e-03	1.00000000e-06	false


	OPTIMIZATION CYCLE:	7

 Scaling Magnitude of Eigenvalues
 	Minimum: -25.00000000	 Maximum: 25.00000000
 42 Hessian Eigenvalues to form next step
   0.02692600   0.09912632   0.10401309   0.10844761   0.11577605
   0.11921565   0.12036217   0.12365175   0.12500285   0.12839008
   0.12899591   0.13031563   0.13064196   0.13343803   0.13671340
   0.13715135   0.13760823   0.14099724   0.14396213   0.14652616
   0.14985257   0.15665602   0.16335394   0.18925698   0.22215375
   0.37005864   0.38878136   0.41660336   0.41993730   0.46659920
   0.49701114   0.49964952   0.49998962   0.50000000   0.50000002
   0.50000035   0.50002236   0.50030778   0.50536684   0.51558209
   0.54840232   0.58606863

 Minimum Search taking a RFO step
 Searching for Lambda that minimizes along all modes
	Value of Lambda  -0.00471669
	Norm of Stepsize  0.27235011
	RMS of Stepsize  0.04202453

	Performing Iterative Coordinate Back-Transformation

	  Starting from Previous Position

	  iter:	0	rms: 3.7716776378e-02	maxdev: 1.7142457760e-01
	  iter:	1	rms: 9.4712988311e-04	maxdev: 3.5659716292e-03
	  iter:	2	rms: 4.5547675365e-07	maxdev: 2.2185601352e-06	 Success!

	Finished Iterative Coordinate Back-Transformation
 Adding empirical dispersion correction 
 ----------------------------------------------------------------
 Doing -D3(BJ) with
 s6  =   1.00000e+00
 s8  =   7.87500e-01
 a1  =   4.28900e-01
 a2  =   4.44070e+00
 -D3 energy without 3body term =     -1.3538392056e-02 hartrees
 ----------------------------------------------------------------
             Standard Nuclear Orientation (Angstroms)
    I     Atom           X                Y                Z
 ----------------------------------------------------------------
    1      C       1.0523838598     0.7529521490    -0.7253682879
    2      C       1.0257391597     0.8179973627     0.8125750060
    3      C      -0.4649802230     0.4525645449    -0.7919319529
    4      C      -0.4002577171     0.2729789985     0.8321531465
    5      C      -0.8329447216    -1.0284845900    -0.8867010791
    6      C      -0.4525495681    -1.2525648314     0.5826391014
    7      H       1.6988628334    -0.0259187023    -1.1842777231
    8      H       1.3301341857     1.7193811229    -1.1932580637
    9      H       1.0894472959     1.8747840831     1.1466980410
[...]
 Smallest overlap matrix eigenvalue = 1.08E-03
 Guess MOs from SCF MO coefficient file

 -----------------------------------------------------------------------
  General SCF calculation program by
  Eric Jon Sundstrom, Paul Horn, Yuezhi Mao, Dmitri Zuev, Alec White,
  David Stuck, Shaama M.S., Shane Yost, Joonho Lee, David Small,
  Daniel Levine, Susi Lehtola, Hugh Burton, Evgeny Epifanovsky,
  Bang C. Huynh
 -----------------------------------------------------------------------
 Exchange:  PBE      Correlation:  PBE
 Using SG-1 standard quadrature grid
 Dispersion:   Grimme D3
 A restricted SCF calculation will be
 performed using DIIS
 SCF converges when DIIS error is below 1.0e-08
 ---------------------------------------
  Cycle       Energy         DIIS error
 ---------------------------------------
    1    -234.2948169246      1.59e-05  
    2    -234.2948179622      1.97e-06  
    3    -234.2948179511      2.98e-06  
    4    -234.2948179713      2.36e-07  
    5    -234.2948179715      3.89e-08  
    6    -234.2948179715      2.54e-08  
    7    -234.2948179715      4.12e-09  Convergence criterion met
 ---------------------------------------
 SCF time:   CPU 7.38s  wall 2.00s 
 SCF   energy in the final basis set =     -234.2948179715
 Total energy in the final basis set =     -234.2948179715

 --------------------------------------------------------------

                    Orbital Energies (a.u.)
 --------------------------------------------------------------

 Alpha MOs
 -- Occupied --
 -9.8936  -9.8936  -9.8911  -9.8910  -9.8906  -9.8906  -0.7885  -0.6731
 -0.6045  -0.5500  -0.5272  -0.4455  -0.4417  -0.4037  -0.3933  -0.3586
 -0.3308  -0.3003  -0.2966  -0.2823  -0.2550  -0.2386  -0.2288
 -- Virtual --
  0.0308   0.0464   0.0582   0.0695   0.0886   0.0897   0.1066   0.1150
  0.1154   0.1439   0.1604   0.1704   0.1805   0.1859   0.2205   0.3023
  0.3199   0.3368   0.3783   0.4007   0.4274   0.4470   0.4517   0.4756
  0.4762   0.4985   0.4998   0.5286   0.5329   0.5588   0.5631   0.5983
  0.6001   0.6093   0.6230   0.6248   0.6303   0.6367   0.6476   0.6660
  0.6687   0.6730   0.6910   0.7417   0.7653   0.9435   1.0139   1.0445
  1.0542   1.0865   1.1159   1.1311   1.1511   1.2207   1.2790   1.3102
  1.3597   1.3612   1.3691   1.3934   1.4311   1.4467   1.4584   1.4913
  1.5346   1.5684   1.5693   1.5845   1.5875   1.6020   1.6097   1.6134
  1.6362   1.6455   1.6586   1.6647   1.6949   1.7126   1.7589   1.7804
  1.8091   1.8121   1.8551   1.8686   1.8701   1.9180   1.9344   1.9441
  1.9993   2.0189   2.0225   2.0333   2.0429   2.0673   2.1096   2.1140
  2.1534   2.1717   2.2817   2.3166   2.3367   2.3440   2.3803   2.4082
  2.4343   2.4421   2.5220   2.5750   2.6419   2.6938   2.9658
 --------------------------------------------------------------

          Ground-State Mulliken Net Atomic Charges

     Atom                 Charge (a.u.)
  ----------------------------------------
      1 C                     0.022573
      2 C                     0.037517
      3 C                    -0.084740
      4 C                    -0.083862
      5 C                     0.037847
      6 C                     0.023116
      7 H                     0.011339
      8 H                     0.018442
      9 H                     0.017178
     10 H                     0.010368
     11 H                    -0.033527
     12 H                    -0.033708
     13 H                     0.010348
     14 H                     0.017378
     15 H                     0.011376
     16 H                     0.018355
  ----------------------------------------
  Sum of atomic charges =     0.000000

 -----------------------------------------------------------------
                    Cartesian Multipole Moments
 -----------------------------------------------------------------
    Charge (ESU x 10^10)
                -0.0000
    Dipole Moment (Debye)
         X      -0.0983      Y       0.0851      Z       0.0162
       Tot       0.1310
    Quadrupole Moments (Debye-Ang)
        XX     -38.2837     XY      -0.1579     YY     -38.2896
        XZ      -0.1937     YZ      -0.0248     ZZ     -39.2137
    Octopole Moments (Debye-Ang^2)
       XXX      -3.6925    XXY      -0.9203    XYY       0.2972
       YYY       4.9014    XXZ       1.1682    XYZ       0.3043
       YYZ       1.0061    XZZ      -0.8186    YZZ       0.9215
       ZZZ       3.3061
    Hexadecapole Moments (Debye-Ang^3)
      XXXX    -229.8757   XXXY     -60.7902   XXYY     -81.0667
      XYYY     -59.7544   YYYY    -264.4374   XXXZ      -9.0305
      XXYZ      -1.1311   XYYZ      -3.9073   YYYZ      -1.6223
      XXZZ     -75.3991   XYZZ     -21.1708   YYZZ     -81.0846
      XZZZ     -11.2326   YZZZ      -0.2443   ZZZZ    -235.7258
 -----------------------------------------------------------------
 Calculating analytic gradient of the SCF energy
 Call libqints based aoints job 111
 Call libqints based aoints job 120
 Gradient of SCF Energy
            1           2           3           4           5           6
    1  -0.0001677   0.0000107  -0.0001359   0.0001268   0.0000504  -0.0001777
    2   0.0001763  -0.0000786  -0.0003828   0.0001294   0.0000214   0.0000616
    3   0.0000639  -0.0000083   0.0000675  -0.0001204  -0.0000375  -0.0000182
            7           8           9          10          11          12
    1   0.0000426   0.0000555  -0.0000109  -0.0000373   0.0001584  -0.0000017
    2  -0.0000404  -0.0000318   0.0000138  -0.0000398   0.0001299  -0.0000336
    3   0.0000318  -0.0000033  -0.0000220   0.0000204  -0.0000259   0.0000353
           13          14          15          16
    1   0.0000602  -0.0000066   0.0000200   0.0000132
    2   0.0000792   0.0000146  -0.0000066  -0.0000126
    3  -0.0000086   0.0000260   0.0000078  -0.0000085
 Max gradient component =       3.828E-04
 RMS gradient           =       9.085E-05
 Gradient time:  CPU 15.08 s  wall 3.77 s

     Step 31	:
        Energy is -234.2948179715
                            Maximum         Tolerance       Converged?
         Gradient           1.33271362e-04	3.00000000e-04	true
         Displacement       3.26568944e-03	1.20000000e-03	false
         Energy change      1.07963473e-06	1.00000000e-06	false


	OPTIMIZATION CYCLE:	32

 Scaling Magnitude of Eigenvalues
 	Minimum: -25.00000000	 Maximum: 25.00000000
 42 Hessian Eigenvalues to form next step
   0.00133631   0.00508945   0.01418208   0.02252667   0.03560698
   0.04955476   0.08299582   0.10367723   0.11710774   0.12305375
   0.12491697   0.12708927   0.12894951   0.13016062   0.13226842
   0.13359400   0.13743632   0.14018224   0.14220135   0.14440528
   0.14624770   0.15030009   0.15966544   0.16945754   0.18924366
   0.29947159   0.38009709   0.41244165   0.44320572   0.45418379
   0.47733731   0.49692397   0.49747290   0.49916747   0.49992156
   0.49998267   0.49998913   0.50001425   0.50257822   0.50445945
   0.51524991   0.54707187

 Minimum Search taking a RFO step
 Searching for Lambda that minimizes along all modes
	Value of Lambda  -0.00000078
	Norm of Stepsize  0.00568498
	RMS of Stepsize  0.00087721

	Performing Iterative Coordinate Back-Transformation

	  Starting from Previous Position

	  iter:	0	rms: 8.4009545679e-04	maxdev: 2.1968668589e-03
	  iter:	1	rms: 3.6691471039e-07	maxdev: 1.0311730829e-06	 Success!

	Finished Iterative Coordinate Back-Transformation
 Adding empirical dispersion correction 
 ----------------------------------------------------------------
 Doing -D3(BJ) with
 s6  =   1.00000e+00
 s8  =   7.87500e-01
 a1  =   4.28900e-01
 a2  =   4.44070e+00
 -D3 energy without 3body term =     -1.3470635584e-02 hartrees
 ----------------------------------------------------------------
             Standard Nuclear Orientation (Angstroms)
    I     Atom           X                Y                Z
 ----------------------------------------------------------------
    1      C       1.0292743031     0.8190006681    -0.7718097557
    2      C       1.0832421824     0.7944249539     0.7873021343
    3      C      -0.4835207976     0.4471947821    -0.7365535693
    4      C      -0.3732536576     0.2717406044     0.8283519615
    5      C      -0.7847161287    -1.0643281019    -0.8852890323
    6      C      -0.5189094814    -1.2679214088     0.6378304708
    7      H       1.6637986527     0.0621941209    -1.2774205429
    8      H       1.2531413670     1.8059224402    -1.2210675091
    9      H       1.1847828090     1.8090168768     1.2209539395
   10      H       1.8476986371     0.1401415773     1.2557550490
   11      H      -1.1746507291     1.1622753333    -1.2227151783
   12      H      -1.0705649982     0.7457224269     1.5455788687
   13      H      -0.1340503131    -1.6237858600    -1.5892949035
   14      H      -1.8398580773    -1.2611559911    -1.1605044504
   15      H       0.4033062352    -1.8343446348     0.8818630399
   16      H      -1.3591400036    -1.7279977873     1.1929094778
 ----------------------------------------------------------------
 Nuclear Repulsion Energy =         242.10633033 hartrees
 There are       23 alpha and       23 beta electrons
 Applying Cartesian multipole field
    Component          Value
    ---------          -----
     (2,0,0)        1.00000E-11
     (0,2,0)        2.00000E-11
     (0,0,2)       -3.00000E-11
 Nucleus-field energy     = 5.0174423552e-10 hartrees
 Requested basis set is cc-pVDZ
 There are 66 shells and 134 basis functions
 A cutoff of  1.0D-12 yielded   2199 shell pairs
 There are      9119 function pairs (      9974 Cartesian)
 Smallest overlap matrix eigenvalue = 1.08E-03
 Guess MOs from SCF MO coefficient file

 -----------------------------------------------------------------------
  General SCF calculation program by
  Eric Jon Sundstrom, Paul Horn, Yuezhi Mao, Dmitri Zuev, Alec White,
  David Stuck, Shaama M.S., Shane Yost, Joonho Lee, David Small,
  Daniel Levine, Susi Lehtola, Hugh Burton, Evgeny Epifanovsky,
  Bang C. Huynh
 -----------------------------------------------------------------------
 Exchange:  PBE      Correlation:  PBE
 Using SG-1 standard quadrature grid
 Dispersion:   Grimme D3
 A restricted SCF calculation will be
 performed using DIIS
 SCF converges when DIIS error is below 1.0e-08
 ---------------------------------------
  Cycle       Energy         DIIS error
 ---------------------------------------
    1    -234.2948180023      1.10e-05  
    2    -234.2948184851      1.72e-06  
    3    -234.2948184758      2.67e-06  
    4    -234.2948184921      1.36e-07  
    5    -234.2948184921      3.33e-08  
    6    -234.2948184921      1.99e-08  
    7    -234.2948184921      2.12e-09  Convergence criterion met
 ---------------------------------------
 SCF time:   CPU 7.36s  wall 2.00s 
 SCF   energy in the final basis set =     -234.2948184921
 Total energy in the final basis set =     -234.2948184921

 --------------------------------------------------------------

                    Orbital Energies (a.u.)
 --------------------------------------------------------------

 Alpha MOs
 -- Occupied --
 -9.8936  -9.8936  -9.8911  -9.8910  -9.8906  -9.8906  -0.7885  -0.6731
 -0.6045  -0.5501  -0.5272  -0.4455  -0.4417  -0.4037  -0.3933  -0.3586
 -0.3308  -0.3003  -0.2966  -0.2823  -0.2551  -0.2386  -0.2287
 -- Virtual --
  0.0308   0.0464   0.0582   0.0695   0.0886   0.0897   0.1066   0.1150
  0.1154   0.1439   0.1605   0.1704   0.1805   0.1859   0.2205   0.3023
  0.3199   0.3368   0.3783   0.4007   0.4273   0.4470   0.4517   0.4755
  0.4762   0.4985   0.4998   0.5285   0.5329   0.5588   0.5631   0.5983
  0.6001   0.6093   0.6230   0.6248   0.6303   0.6367   0.6476   0.6661
  0.6687   0.6729   0.6909   0.7417   0.7653   0.9436   1.0140   1.0445
  1.0541   1.0866   1.1158   1.1311   1.1512   1.2208   1.2789   1.3103
  1.3598   1.3612   1.3690   1.3935   1.4311   1.4467   1.4584   1.4913
  1.5346   1.5684   1.5694   1.5845   1.5875   1.6020   1.6099   1.6133
  1.6362   1.6455   1.6585   1.6648   1.6949   1.7124   1.7589   1.7803
  1.8092   1.8121   1.8550   1.8686   1.8700   1.9180   1.9342   1.9441
  1.9994   2.0190   2.0226   2.0333   2.0428   2.0673   2.1096   2.1140
  2.1535   2.1716   2.2818   2.3166   2.3367   2.3441   2.3803   2.4083
  2.4342   2.4421   2.5219   2.5751   2.6418   2.6937   2.9660
 --------------------------------------------------------------

          Ground-State Mulliken Net Atomic Charges

     Atom                 Charge (a.u.)
  ----------------------------------------
      1 C                     0.022759
      2 C                     0.037394
      3 C                    -0.084795
      4 C                    -0.083860
      5 C                     0.037709
      6 C                     0.023278
      7 H                     0.011349
      8 H                     0.018465
      9 H                     0.017167
     10 H                     0.010362
     11 H                    -0.033486
     12 H                    -0.033732
     13 H                     0.010318
     14 H                     0.017377
     15 H                     0.011361
     16 H                     0.018333
  ----------------------------------------
  Sum of atomic charges =     0.000000

 -----------------------------------------------------------------
                    Cartesian Multipole Moments
 -----------------------------------------------------------------
    Charge (ESU x 10^10)
                 0.0000
    Dipole Moment (Debye)
         X      -0.0983      Y       0.0853      Z       0.0163
       Tot       0.1311
    Quadrupole Moments (Debye-Ang)
        XX     -38.2819     XY      -0.1593     YY     -38.2888
        XZ      -0.1926     YZ      -0.0228     ZZ     -39.2162
    Octopole Moments (Debye-Ang^2)
       XXX      -3.6958    XXY      -0.9196    XYY       0.2977
       YYY       4.8984    XXZ       1.1656    XYZ       0.3046
       YYZ       1.0072    XZZ      -0.8206    YZZ       0.9229
       ZZZ       3.3136
    Hexadecapole Moments (Debye-Ang^3)
      XXXX    -229.8970   XXXY     -60.8075   XXYY     -81.0768
      XYYY     -59.7683   YYYY    -264.4511   XXXZ      -9.0175
      XXYZ      -1.1221   XYYZ      -3.8999   YYYZ      -1.5935
      XXZZ     -75.3988   XYZZ     -21.1772   YYZZ     -81.0899
      XZZZ     -11.2189   YZZZ      -0.2215   ZZZZ    -235.7250
 -----------------------------------------------------------------
 Calculating analytic gradient of the SCF energy
 Call libqints based aoints job 111
 Call libqints based aoints job 120
 Gradient of SCF Energy
            1           2           3           4           5           6
    1  -0.0000909   0.0000285  -0.0000717  -0.0000021  -0.0000260  -0.0000765
    2   0.0000922  -0.0000364  -0.0001929   0.0000473   0.0000104   0.0000405
    3   0.0000378   0.0000016   0.0000426  -0.0001094  -0.0000022  -0.0000240
            7           8           9          10          11          12
    1   0.0000371   0.0000359  -0.0000136  -0.0000240   0.0001044   0.0000310
    2  -0.0000293  -0.0000199   0.0000048  -0.0000300   0.0000961  -0.0000285
    3   0.0000360   0.0000219  -0.0000123   0.0000026  -0.0000129   0.0000194
           13          14          15          16
    1   0.0000591   0.0000101   0.0000085  -0.0000098
    2   0.0000105   0.0000221   0.0000195  -0.0000063
    3   0.0000305   0.0000039  -0.0000101  -0.0000254
 Max gradient component =       1.929E-04
 RMS gradient           =       5.083E-05
 Gradient time:  CPU 14.97 s  wall 3.75 s

     Step 32	:
        Energy is -234.2948184921
                            Maximum         Tolerance       Converged?
         Gradient           1.17375943e-04	3.00000000e-04	true
         Displacement       2.20264984e-03	1.20000000e-03	false
         Energy change      5.20641436e-07	1.00000000e-06	true

	 Optimization Converged in 32 cycles

 *****************************************************
             End of BFGS Algorithm
 *****************************************************
		----------------------------------
		   Verification of Optimization
		----------------------------------

 Eigenvalues of Hessian in Optimization Verification
   0.00130564   0.00516411   0.01418534   0.02382946   0.03552364
   0.04928704   0.06652210   0.09749572   0.11696352   0.12278534
   0.12480744   0.12684441   0.12897663   0.13081003   0.13163677
   0.13325667   0.13732659   0.13937673   0.14275841   0.14539102
   0.14635534   0.15037287   0.15969648   0.16933554   0.18916477
   0.26658480   0.38267426   0.41194957   0.43410218   0.45178192
   0.47222270   0.49659009   0.49769395   0.49894303   0.49992319
   0.49998412   0.49998912   0.50003089   0.50182963   0.50476161
   0.51543394   0.54176242

 Found a minimum
		---------------------------------
		       End of Verification
		---------------------------------

 Final energy is -234.294818492123

	******************************
	**  OPTIMIZATION CONVERGED  **
	******************************
 Adding empirical dispersion correction 
 ----------------------------------------------------------------
 Doing -D3(BJ) with
 s6  =   1.00000
 s8  =   0.78750
 a1  =   0.42890
 a2  =   4.44070
 -D3 energy without 3body term =     -0.0134706356 hartrees
 ----------------------------------------------------------------
             Standard Nuclear Orientation (Angstroms)
    I     Atom           X                Y                Z
 ----------------------------------------------------------------
    1      C       1.0292743031     0.8190006681    -0.7718097557
    2      C       1.0832421824     0.7944249539     0.7873021343
    3      C      -0.4835207976     0.4471947821    -0.7365535693
    4      C      -0.3732536576     0.2717406044     0.8283519615
    5      C      -0.7847161287    -1.0643281019    -0.8852890323
    6      C      -0.5189094814    -1.2679214088     0.6378304708
    7      H       1.6637986527     0.0621941209    -1.2774205429
    8      H       1.2531413670     1.8059224402    -1.2210675091
    9      H       1.1847828090     1.8090168768     1.2209539395
   10      H       1.8476986371     0.1401415773     1.2557550490
   11      H      -1.1746507291     1.1622753333    -1.2227151783
   12      H      -1.0705649982     0.7457224269     1.5455788687
   13      H      -0.1340503131    -1.6237858600    -1.5892949035
   14      H      -1.8398580773    -1.2611559911    -1.1605044504
   15      H       0.4033062352    -1.8343446348     0.8818630399
   16      H      -1.3591400036    -1.7279977873     1.1929094778
 ----------------------------------------------------------------
 Nuclear Repulsion Energy =         242.10633033 hartrees
 There are       23 alpha and       23 beta electrons

Z-matrix Print:
$molecule
0 1
C 
H  1 1.106940
C  1 1.547987 2 117.730591
H  3 1.108044 1 112.645080 2 -20.113474 0
H  3 1.109923 1 115.963955 2 105.233463 0
C  1 1.558228 2 116.322742 3 141.940498 0
H  6 1.107145 1 114.849769 2 4.006714 0
H  6 1.109445 1 113.569986 2 -120.942562 0
C  6 1.559486 1 90.364012 2 121.382089 0
H  9 1.108066 6 112.438825 1 -108.447373 0
H  9 1.109947 6 116.985076 1 125.534584 0
C  9 1.548400 6 90.026915 1 6.009915 0
H  12 1.106957 9 117.837556 6 -134.471132 0
C  12 1.558214 9 114.809621 6 82.885322 0
H  14 1.107232 12 114.718247 9 147.448039 0
H  14 1.109513 12 113.751946 9 22.532752 0
$end

 -----------------------------------------------------------------------
                  END OF GEOMETRY OPTIMIZER USING LIBOPT3               
 -----------------------------------------------------------------------
 Total job time:  188.60s(wall), 752.10s(cpu) 
 Tue Jul 11 08:35:03 2023

        *************************************************************
        *                                                           *
        *  Thank you very much for using Q-Chem.  Have a nice day.  *
        *                                                           *
        *************************************************************


