16
Properties=species:S:1:pos:R:3:forces:R:3 energy=-6374.961906518154 pbc="F F F"
C        1.00187890       0.73991569      -0.72160371      -0.00248883       0.00241684      -0.00245283
C        1.02028712       0.78589897       0.77675862      -0.00090503      -0.00060678       0.00021083
C       -0.46896108       0.44279926      -0.71512098      -0.00021597       0.00140382       0.00402635
C       -0.37124237       0.26153916       0.80521366      -0.00117757      -0.00360983      -0.00234485
C       -0.78289454      -1.00323096      -0.86419307       0.00087418       0.00073019      -0.00125470
C       -0.45471002      -1.21962293       0.58144802       0.00305447      -0.00004628       0.00220601
H        1.59597579      -0.04321355      -1.16541912      -0.00177920       0.00178435      -0.00110557
H        1.28744582       1.65734499      -1.20663267      -0.00155809       0.00032396      -0.00135240
H        1.08749830       1.79603155       1.14542127      -0.00060678      -0.00010799      -0.00036510
H        1.76763087       0.20378615       1.29344790       0.00213916       0.00292077      -0.00194375
H       -1.10666212       1.16471014      -1.19418272      -0.00305447      -0.00165579       0.00241169
H       -1.07091677       0.68326570       1.50508445       0.00253511      -0.00023654       0.00128041
H       -0.21518104      -1.55004351      -1.60123507      -0.00142439       0.00011313      -0.00004628
H       -1.82612761      -1.17593492      -1.07063127       0.00050908      -0.00182034       0.00135240
H        0.47523946      -1.73198259       0.77030405       0.00132669      -0.00043709      -0.00069420
H       -1.21268072      -1.73316315       1.14722865       0.00277165      -0.00117242       0.00007199
