12
Lattice="6.0 0.0 0.0 0.0 6.0 0.0 0.0 0.0 6.0" Properties=species:S:1:pos:R:3:forces:R:3:magmoms:R:1 energy=-74.81676533999999 stress="-0.03893345083818115 -6.05426385210676e-10 -6.241509125883259e-12 -6.05426385210676e-10 -0.05024829846150256 -7.48981095105991e-11 -6.241509125883259e-12 -7.48981095105991e-11 -0.0009670955248531362" dipole="_JSON [[0.0, 0.0, 0.0]]" magmom=0.0 free_energy=-74.80902875 pbc="T T T"
C        2.99999999       4.33259934       3.00000024       0.00000034       0.00005399       0.00000043       0.00000000
C        4.21370287       3.69610314       3.00000014       0.00037522       0.00010011       0.00000013       0.00000000
C        4.21370287       2.30389686       2.99999990       0.00037565      -0.00009999      -0.00000014       0.00000000
C        3.00000001       1.66740066       2.99999976      -0.00000037      -0.00005400      -0.00000043       0.00000000
C        1.78629713       2.30389686       2.99999986      -0.00037522      -0.00010008      -0.00000013       0.00000000
C        1.78629713       3.69610314       3.00000010      -0.00037567       0.00009999       0.00000014       0.00000000
H        2.99999999       5.39462368       3.00000023      -0.00000002       0.00017697       0.00000087       0.00000000
H        5.11706659       4.27516353       3.00000008       0.00025582      -0.00022059       0.00000013       0.00000000
H        5.11706659       1.72483648       2.99999995       0.00025587       0.00022057      -0.00000019       0.00000000
H        3.00000001       0.60537632       2.99999977       0.00000003      -0.00017699      -0.00000087       0.00000000
H        0.88293341       1.72483647       2.99999992      -0.00025579       0.00022060      -0.00000013       0.00000000
H        0.88293341       4.27516352       3.00000005      -0.00025585      -0.00022058       0.00000019       0.00000000
