12
Lattice="8.0 0.0 0.0 0.0 8.0 0.0 0.0 0.0 8.0" Properties=species:S:1:pos:R:3:forces:R:3:magmoms:R:1 energy=-76.27709907 stress="-0.00013447934965647954 -9.362263688824887e-11 -8.738112776236562e-11 -9.362263688824887e-11 0.000948602226664073 -9.362263688824887e-11 -8.738112776236562e-11 -9.362263688824887e-11 0.0007654164678721044" dipole="_JSON [[0.0, 0.0, 0.0]]" magmom=0.0 free_energy=-76.26933506 pbc="T T T"
C        3.99999999       5.39862655       4.00000010       0.00000081      -0.00004989       0.00000020       0.00000000
C        5.20815644       4.69978551       4.00000014      -0.00007619       0.00006413       0.00000007       0.00000000
C        5.20815645       3.30021449       4.00000000      -0.00007629      -0.00006354       0.00000012       0.00000000
C        4.00000001       2.60137345       3.99999990      -0.00000077       0.00004972      -0.00000020       0.00000000
C        2.79184356       3.30021449       3.99999986       0.00007610      -0.00006418      -0.00000007       0.00000000
C        2.79184355       4.69978551       4.00000000       0.00007623       0.00006365      -0.00000012       0.00000000
H        4.00000000       6.49150864       4.00000006      -0.00000003      -0.00007388       0.00000020       0.00000000
H        6.15417480       5.24178747       4.00000015       0.00004223       0.00002527       0.00000033       0.00000000
H        6.15417480       2.75821255       4.00000001       0.00004288      -0.00002563       0.00000006       0.00000000
H        4.00000000       1.50849136       3.99999994       0.00000003       0.00007394      -0.00000020       0.00000000
H        1.84582520       2.75821253       3.99999985      -0.00004214      -0.00002522      -0.00000033       0.00000000
H        1.84582520       5.24178745       3.99999999      -0.00004286       0.00002562      -0.00000006       0.00000000
