12
Lattice="20.0 0.0 0.0 0.0 20.0 0.0 0.0 0.0 20.0" Properties=species:S:1:pos:R:3:forces:R:3:magmoms:R:1 energy=-76.29002492 stress="3.9899046815500754e-05 -4.993207300706607e-11 -0.0 -4.993207300706607e-11 3.9992656969370757e-05 -0.0 -0.0 -0.0 5.135755879330829e-05" dipole="_JSON [[0.0, 0.0, 0.0]]" magmom=0.0 free_energy=-76.28229438 pbc="T T T"
C       10.00000000      11.39762982      10.00000001       0.00000039       0.00000498       0.00000006       0.00000000
C       11.21037652      10.69880607      10.00000001      -0.00023935       0.00009787       0.00000008       0.00000000
C       11.21037651       9.30119393      10.00000000      -0.00023884      -0.00009770      -0.00000005       0.00000000
C       10.00000000       8.60237018       9.99999999      -0.00000040      -0.00000506      -0.00000006       0.00000000
C        8.78962348       9.30119393       9.99999999       0.00023938      -0.00009784      -0.00000008       0.00000000
C        8.78962349      10.69880607      10.00000000       0.00023886       0.00009769       0.00000004       0.00000000
H       10.00000000      12.48881384      10.00000000      -0.00000001       0.00039954       0.00000001       0.00000000
H       12.15535179      11.24438742      10.00000000       0.00046490       0.00027081       0.00000008       0.00000000
H       12.15535179       8.75561258      10.00000000       0.00046484      -0.00027079       0.00000002       0.00000000
H       10.00000000       7.51118616      10.00000000       0.00000001      -0.00039949      -0.00000001       0.00000000
H        7.84464821       8.75561258      10.00000000      -0.00046493      -0.00027083      -0.00000008       0.00000000
H        7.84464821      11.24438742      10.00000000      -0.00046487       0.00027080      -0.00000001       0.00000000
