8
Properties=species:S:1:pos:R:3 energy=-2168.046881055105 pbc="F F F"
C        0.00000000      -0.00001200       0.76446600
C        0.00000000       0.00001200      -0.76446600
H        0.00000000       1.01777200       1.15961200
H       -0.88142800      -0.50888500       1.15961700
H        0.88142800      -0.50888500       1.15961700
H        0.00000000      -1.01777200      -1.15961200
H       -0.88142800       0.50888500      -1.15961700
H        0.88142800       0.50888500      -1.15961700
