12
Properties=species:S:1:pos:R:3:forces:R:3 energy=-6307.307047389954 pbc="F F F"
C        0.22888372      -0.85376279       0.78103125      -0.00260710       0.00302876       0.00323445
C        0.62491960       0.62511284       0.78110484      -0.00020569      -0.00399035       0.00199518
C       -0.85384393       0.22871567       0.78106834       0.00375895       0.00063249       0.00246312
C        0.62511284       0.62491960      -0.78110484      -0.00399035      -0.00020569      -0.00199518
C        0.22871567      -0.85384393      -0.78106834       0.00063249       0.00375895      -0.00246312
C       -0.85376279       0.22888372      -0.78103125       0.00302876      -0.00260710      -0.00323445
H        0.43753977      -1.63178048       1.52785673      -0.00046794      -0.00003600      -0.00103873
H        1.19467998       1.19457354       1.52786337      -0.00052451      -0.00012856      -0.00055536
H       -1.63206740       0.43702948       1.52777479       0.00037024       0.00016455      -0.00067363
H        1.19457354       1.19467998      -1.52786337      -0.00012856      -0.00052451       0.00055536
H        0.43702948      -1.63206740      -1.52777479       0.00016455       0.00037024       0.00067363
H       -1.63178048       0.43753977      -1.52785673      -0.00003600      -0.00046794       0.00103873
