18
Lattice="7.299745280000001 -6.2e-07 1.54e-06 -3.69987316 6.4083361 -5.815e-05 2.76e-06 -0.00028249 20.0" Properties=species:S:1:pos:R:3:forces:R:3:magmoms:R:1 energy=-163.17000966 stress="-0.0049624232165053446 0.005279093522021765 -4.495759023373711e-08 0.005279093522021765 -0.02489457901344506 1.3858022712198597e-07 -4.495759023373711e-08 1.3858022712198597e-07 0.0006446468988445747" dipole="_JSON [[0.0, 0.0, 0.0]]" magmom=0.0 free_energy=-163.16186471 pbc="T T T"
C        0.05410091       0.72936905       9.99999586      -0.00005266       0.00013905      -0.00000561       0.00000000
C        1.24586804       1.40646202       9.99999040      -0.00023438      -0.00034291      -0.00000686       0.00000000
C       -1.17919017       2.86548112       9.99997646      -0.00005205       0.00013801       0.00000231       0.00000000
C        0.01257696       3.54257408       9.99997142      -0.00023352      -0.00034354       0.00000410       0.00000000
C       -2.41248114       5.00159317       9.99996103      -0.00005375       0.00013837      -0.00000401       0.00000000
C       -1.22071401       5.67868614       9.99995378      -0.00023532      -0.00034326      -0.00000421       0.00000000
C        2.48734940       0.72936811       9.99999456      -0.00009582       0.00015472       0.00000516       0.00000000
C        3.67910983       1.40645864       9.99998557       0.00009593      -0.00015658       0.00001342       0.00000000
C        1.25405829       2.86548008       9.99997625      -0.00009569       0.00015627       0.00000365       0.00000000
C        2.44581873       3.54257061       9.99997137       0.00009627      -0.00015504      -0.00000011       0.00000000
C        0.02076730       5.00159214       9.99996057      -0.00009612       0.00015562      -0.00001011       0.00000000
C        1.21252775       5.67868265       9.99995091       0.00009508      -0.00015519      -0.00000435       0.00000000
C        4.92059117       0.72936462       9.99999145       0.00023401       0.00034361       0.00001141       0.00000000
C        6.11235828       1.40645758       9.99998770       0.00005275      -0.00013803       0.00000535       0.00000000
C        3.68730009       2.86547669       9.99997804       0.00023467       0.00034306      -0.00000621       0.00000000
C        4.87906722       3.54256965       9.99997565       0.00005277      -0.00013870      -0.00001243       0.00000000
C        2.45400906       5.00158868       9.99995750       0.00023476       0.00034287       0.00000368       0.00000000
C        3.64577619       5.67868164       9.99995257       0.00005305      -0.00013833       0.00000482       0.00000000
