 Entering Gaussian System, Link 0=g16
 Input=freq.com
 Output=freq.log
 Initial command:
 /opt/gaussian/g16/l1.exe "/mnt/scratch/hwang/Gau-2099692.inp" -scrdir="/mnt/scratch/hwang/"
 Entering Link 1 = /opt/gaussian/g16/l1.exe PID=   2099674.
  
 Copyright (c) 1988-2019, Gaussian, Inc.  All Rights Reserved.
  
 This is part of the Gaussian(R) 16 program.  It is based on
 the Gaussian(R) 09 system (copyright 2009, Gaussian, Inc.),
 the Gaussian(R) 03 system (copyright 2003, Gaussian, Inc.),
 the Gaussian(R) 98 system (copyright 1998, Gaussian, Inc.),
 the Gaussian(R) 94 system (copyright 1995, Gaussian, Inc.),
 the Gaussian 92(TM) system (copyright 1992, Gaussian, Inc.),
 the Gaussian 90(TM) system (copyright 1990, Gaussian, Inc.),
 the Gaussian 88(TM) system (copyright 1988, Gaussian, Inc.),
 the Gaussian 86(TM) system (copyright 1986, Carnegie Mellon
 University), and the Gaussian 82(TM) system (copyright 1983,
 Carnegie Mellon University). Gaussian is a federally registered
 trademark of Gaussian, Inc.
  
 This software contains proprietary and confidential information,
 including trade secrets, belonging to Gaussian, Inc.
  
 This software is provided under written license and may be
 used, copied, transmitted, or stored only in accord with that
 written license.
  
 The following legend is applicable only to US Government
 contracts under FAR:
  
                    RESTRICTED RIGHTS LEGEND
  
 Use, reproduction and disclosure by the US Government is
 subject to restrictions as set forth in subparagraphs (a)
 and (c) of the Commercial Computer Software - Restricted
 Rights clause in FAR 52.227-19.
  
 Gaussian, Inc.
 340 Quinnipiac St., Bldg. 40, Wallingford CT 06492
  
  
 ---------------------------------------------------------------
 Warning -- This program may not be used in any manner that
 competes with the business of Gaussian, Inc. or will provide
 assistance to any competitor of Gaussian, Inc.  The licensee
 of this program is prohibited from giving any competitor of
 Gaussian, Inc. access to this program.  By using this program,
 the user acknowledges that Gaussian, Inc. is engaged in the
 business of creating and licensing software in the field of
 computational chemistry and represents and warrants to the
 licensee that it is not a competitor of Gaussian, Inc. and that
 it will not use this program in any manner prohibited above.
 ---------------------------------------------------------------
  

 Cite this work as:
 Gaussian 16, Revision C.01,
 M. J. Frisch, G. W. Trucks, H. B. Schlegel, G. E. Scuseria, 
 M. A. Robb, J. R. Cheeseman, G. Scalmani, V. Barone, 
 G. A. Petersson, H. Nakatsuji, X. Li, M. Caricato, A. V. Marenich, 
 J. Bloino, B. G. Janesko, R. Gomperts, B. Mennucci, H. P. Hratchian, 
 J. V. Ortiz, A. F. Izmaylov, J. L. Sonnenberg, D. Williams-Young, 
 F. Ding, F. Lipparini, F. Egidi, J. Goings, B. Peng, A. Petrone, 
 T. Henderson, D. Ranasinghe, V. G. Zakrzewski, J. Gao, N. Rega, 
 G. Zheng, W. Liang, M. Hada, M. Ehara, K. Toyota, R. Fukuda, 
 J. Hasegawa, M. Ishida, T. Nakajima, Y. Honda, O. Kitao, H. Nakai, 
 T. Vreven, K. Throssell, J. A. Montgomery, Jr., J. E. Peralta, 
 F. Ogliaro, M. J. Bearpark, J. J. Heyd, E. N. Brothers, K. N. Kudin, 
 V. N. Staroverov, T. A. Keith, R. Kobayashi, J. Normand, 
 K. Raghavachari, A. P. Rendell, J. C. Burant, S. S. Iyengar, 
 J. Tomasi, M. Cossi, J. M. Millam, M. Klene, C. Adamo, R. Cammi, 
 J. W. Ochterski, R. L. Martin, K. Morokuma, O. Farkas, 
 J. B. Foresman, and D. J. Fox, Gaussian, Inc., Wallingford CT, 2019.
 
 ******************************************
 Gaussian 16:  ES64L-G16RevC.01  3-Jul-2019
                 7-Jul-2023 
 ******************************************
 %mem=60GB
 %chk=freq.chk
 %save
 ----------------------------------------------------------------------
 #P b3lyp/6-311++G* iop(7/33=1) freq EmpiricalDispersion(GD3BJ) scf(qc)
 ----------------------------------------------------------------------
 1/10=4,30=1,38=1/1,3;
 2/12=2,17=6,18=5,40=1/2;
 3/5=4,6=6,7=1011,11=2,25=1,30=1,71=2,74=-5,124=41,140=1/1,2,3;
 4//1;
 5/5=2,8=3,38=5,98=1/8;
 8/6=4,10=90,11=11/1;
 11/6=1,8=1,9=11,15=111,16=1/1,2,10;
 10/6=1/2;
 6/7=2,8=2,9=2,10=2,28=1/1;
 7/8=1,10=1,25=1,33=1/1,2,3,16;
 1/10=4,30=1/3;
 99//99;
 Leave Link    1 at Fri Jul  7 15:27:58 2023, MaxMem=  8053063680 cpu:               0.1 elap:               0.1
 (Enter /opt/gaussian/g16/l101.exe)
 ------------------------------
 Gaussian input prepared by ASE
 ------------------------------
 Symbolic Z-matrix:
 Charge =  0 Multiplicity = 1
 C                    -5.15998   2.51667   0.13385 
 N                    -4.11318   3.25884   0.34521 
 C                    -3.03758   2.40529   0.16734 
 C                    -3.47376   1.12542  -0.16445 
 N                    -4.84892   1.19858  -0.20133 
 C                    -5.81834   0.1195   -0.28298 
 C                    -5.74629  -0.78874  -1.56273 
 C                    -5.91327  -2.19989  -0.95125 
 C                    -5.21803  -2.02945   0.39802 
 O                    -5.71453  -0.74732   0.84155 
 C                    -5.49521  -3.09227   1.44067 
 O                    -4.80883  -2.87575   2.6648 
 O                    -7.28309  -2.56371  -0.80904 
 O                    -4.5935   -0.65297  -2.35085 
 N                    -2.72384   0.02829  -0.42038 
 C                    -1.41846   0.24381  -0.32334 
 N                    -0.89325   1.46032   0.01228 
 C                    -1.63182   2.63435   0.27676 
 O                    -1.03735   3.67531   0.55965 
 N                    -0.55029  -0.76127  -0.54626 
 H                    -6.18864   2.84183   0.19521 
 H                    -6.79188   0.60957  -0.22529 
 H                    -6.59087  -0.57441  -2.21783 
 H                    -5.4598   -2.95174  -1.59541 
 H                    -4.13411  -1.94842   0.23857 
 H                    -5.23547  -4.06799   1.0057 
 H                    -6.553    -3.11774   1.69964 
 H                    -3.8682   -2.74929   2.48978 
 H                    -7.67885  -2.03632  -0.10225 
 H                    -3.7937   -0.64115  -1.78868 
 H                     0.13261   1.56672   0.05718 
 H                    -0.92605  -1.63643  -0.86838 
 H                     0.46054  -0.61587  -0.56613 
 C                     3.97557   3.16983   0.58459 
 C                     4.74091   2.10081   0.27444 
 N                     4.18129   0.9152   -0.12108 
 C                     2.76038   0.78631  -0.19659 
 O                     2.28322  -0.29057  -0.5624 
 N                     2.00307   1.85748   0.1224 
 C                     2.55121   3.01503   0.50308 
 N                     1.73452   4.02575   0.80268 
 C                     4.95332  -0.27349  -0.38236 
 C                     6.34424  -0.18963  -1.02035 
 C                     6.75077  -1.67128  -0.88298 
 C                     6.13252  -2.04416   0.5057 
 O                     5.22515  -0.96946   0.84052 
 C                     5.43299  -3.39842   0.54453 
 O                     5.01289  -3.75865   1.85026 
 O                     6.32115  -2.47547  -1.96981 
 O                     7.24955   0.6473   -0.30907 
 H                     4.42877   4.10651   0.8801 
 H                     5.81955   2.12851   0.28935 
 H                     0.7127    3.91983   0.72506 
 H                     2.10889   4.91459   1.08889 
 H                     4.30304  -0.88423  -1.01454 
 H                     6.34506   0.14868  -2.05473 
 H                     7.83548  -1.76385  -0.87861 
 H                     6.91149  -2.03423   1.27645 
 H                     6.09312  -4.15689   0.10694 
 H                     4.51806  -3.36702  -0.05001 
 H                     5.78154  -3.97822   2.3902 
 H                     5.36105  -2.44783  -2.06811 
 H                     7.27059   0.36537   0.61595 
 
 ITRead=  0  0  0  0  0  0  0  0  0  0  0  0  0  0  0  0  0  0  0  0
 ITRead=  0  0  0  0  0  0  0  0  0  0  0  0  0  0  0  0  0  0  0  0
 ITRead=  0  0  0  0  0  0  0  0  0  0  0  0  0  0  0  0  0  0  0  0
 ITRead=  0  0  0
 MicOpt= -1 -1 -1 -1 -1 -1 -1 -1 -1 -1 -1 -1 -1 -1 -1 -1 -1 -1 -1 -1
 MicOpt= -1 -1 -1 -1 -1 -1 -1 -1 -1 -1 -1 -1 -1 -1 -1 -1 -1 -1 -1 -1
 MicOpt= -1 -1 -1 -1 -1 -1 -1 -1 -1 -1 -1 -1 -1 -1 -1 -1 -1 -1 -1 -1
 MicOpt= -1 -1 -1
 NAtoms=     63 NQM=       63 NQMF=       0 NMMI=      0 NMMIF=      0
                NMic=       0 NMicF=      0.
                    Isotopes and Nuclear Properties:
 (Nuclear quadrupole moments (NQMom) in fm**2, nuclear magnetic moments (NMagM)
  in nuclear magnetons)

  Atom         1           2           3           4           5           6           7           8           9          10
 IAtWgt=          12          14          12          12          14          12          12          12          12          16
 AtmWgt=  12.0000000  14.0030740  12.0000000  12.0000000  14.0030740  12.0000000  12.0000000  12.0000000  12.0000000  15.9949146
 NucSpn=           0           2           0           0           2           0           0           0           0           0
 AtZEff=  -0.0000000  -0.0000000  -0.0000000  -0.0000000  -0.0000000  -0.0000000  -0.0000000  -0.0000000  -0.0000000  -0.0000000
 NQMom=    0.0000000   2.0440000   0.0000000   0.0000000   2.0440000   0.0000000   0.0000000   0.0000000   0.0000000   0.0000000
 NMagM=    0.0000000   0.4037610   0.0000000   0.0000000   0.4037610   0.0000000   0.0000000   0.0000000   0.0000000   0.0000000
 AtZNuc=   6.0000000   7.0000000   6.0000000   6.0000000   7.0000000   6.0000000   6.0000000   6.0000000   6.0000000   8.0000000

  Atom        11          12          13          14          15          16          17          18          19          20
 IAtWgt=          12          16          16          16          14          12          14          12          16          14
 AtmWgt=  12.0000000  15.9949146  15.9949146  15.9949146  14.0030740  12.0000000  14.0030740  12.0000000  15.9949146  14.0030740
 NucSpn=           0           0           0           0           2           0           2           0           0           2
 AtZEff=  -0.0000000  -0.0000000  -0.0000000  -0.0000000  -0.0000000  -0.0000000  -0.0000000  -0.0000000  -0.0000000  -0.0000000
 NQMom=    0.0000000   0.0000000   0.0000000   0.0000000   2.0440000   0.0000000   2.0440000   0.0000000   0.0000000   2.0440000
 NMagM=    0.0000000   0.0000000   0.0000000   0.0000000   0.4037610   0.0000000   0.4037610   0.0000000   0.0000000   0.4037610
 AtZNuc=   6.0000000   8.0000000   8.0000000   8.0000000   7.0000000   6.0000000   7.0000000   6.0000000   8.0000000   7.0000000

  Atom        21          22          23          24          25          26          27          28          29          30
 IAtWgt=           1           1           1           1           1           1           1           1           1           1
 AtmWgt=   1.0078250   1.0078250   1.0078250   1.0078250   1.0078250   1.0078250   1.0078250   1.0078250   1.0078250   1.0078250
 NucSpn=           1           1           1           1           1           1           1           1           1           1
 AtZEff=  -0.0000000  -0.0000000  -0.0000000  -0.0000000  -0.0000000  -0.0000000  -0.0000000  -0.0000000  -0.0000000  -0.0000000
 NQMom=    0.0000000   0.0000000   0.0000000   0.0000000   0.0000000   0.0000000   0.0000000   0.0000000   0.0000000   0.0000000
 NMagM=    2.7928460   2.7928460   2.7928460   2.7928460   2.7928460   2.7928460   2.7928460   2.7928460   2.7928460   2.7928460
 AtZNuc=   1.0000000   1.0000000   1.0000000   1.0000000   1.0000000   1.0000000   1.0000000   1.0000000   1.0000000   1.0000000

  Atom        31          32          33          34          35          36          37          38          39          40
 IAtWgt=           1           1           1          12          12          14          12          16          14          12
 AtmWgt=   1.0078250   1.0078250   1.0078250  12.0000000  12.0000000  14.0030740  12.0000000  15.9949146  14.0030740  12.0000000
 NucSpn=           1           1           1           0           0           2           0           0           2           0
 AtZEff=  -0.0000000  -0.0000000  -0.0000000  -0.0000000  -0.0000000  -0.0000000  -0.0000000  -0.0000000  -0.0000000  -0.0000000
 NQMom=    0.0000000   0.0000000   0.0000000   0.0000000   0.0000000   2.0440000   0.0000000   0.0000000   2.0440000   0.0000000
 NMagM=    2.7928460   2.7928460   2.7928460   0.0000000   0.0000000   0.4037610   0.0000000   0.0000000   0.4037610   0.0000000
 AtZNuc=   1.0000000   1.0000000   1.0000000   6.0000000   6.0000000   7.0000000   6.0000000   8.0000000   7.0000000   6.0000000

  Atom        41          42          43          44          45          46          47          48          49          50
 IAtWgt=          14          12          12          12          12          16          12          16          16          16
 AtmWgt=  14.0030740  12.0000000  12.0000000  12.0000000  12.0000000  15.9949146  12.0000000  15.9949146  15.9949146  15.9949146
 NucSpn=           2           0           0           0           0           0           0           0           0           0
 AtZEff=  -0.0000000  -0.0000000  -0.0000000  -0.0000000  -0.0000000  -0.0000000  -0.0000000  -0.0000000  -0.0000000  -0.0000000
 NQMom=    2.0440000   0.0000000   0.0000000   0.0000000   0.0000000   0.0000000   0.0000000   0.0000000   0.0000000   0.0000000
 NMagM=    0.4037610   0.0000000   0.0000000   0.0000000   0.0000000   0.0000000   0.0000000   0.0000000   0.0000000   0.0000000
 AtZNuc=   7.0000000   6.0000000   6.0000000   6.0000000   6.0000000   8.0000000   6.0000000   8.0000000   8.0000000   8.0000000

  Atom        51          52          53          54          55          56          57          58          59          60
 IAtWgt=           1           1           1           1           1           1           1           1           1           1
 AtmWgt=   1.0078250   1.0078250   1.0078250   1.0078250   1.0078250   1.0078250   1.0078250   1.0078250   1.0078250   1.0078250
 NucSpn=           1           1           1           1           1           1           1           1           1           1
 AtZEff=  -0.0000000  -0.0000000  -0.0000000  -0.0000000  -0.0000000  -0.0000000  -0.0000000  -0.0000000  -0.0000000  -0.0000000
 NQMom=    0.0000000   0.0000000   0.0000000   0.0000000   0.0000000   0.0000000   0.0000000   0.0000000   0.0000000   0.0000000
 NMagM=    2.7928460   2.7928460   2.7928460   2.7928460   2.7928460   2.7928460   2.7928460   2.7928460   2.7928460   2.7928460
 AtZNuc=   1.0000000   1.0000000   1.0000000   1.0000000   1.0000000   1.0000000   1.0000000   1.0000000   1.0000000   1.0000000

  Atom        61          62          63
 IAtWgt=           1           1           1
 AtmWgt=   1.0078250   1.0078250   1.0078250
 NucSpn=           1           1           1
 AtZEff=  -0.0000000  -0.0000000  -0.0000000
 NQMom=    0.0000000   0.0000000   0.0000000
 NMagM=    2.7928460   2.7928460   2.7928460
 AtZNuc=   1.0000000   1.0000000   1.0000000
 Leave Link  101 at Fri Jul  7 15:27:58 2023, MaxMem=  8053063680 cpu:               0.5 elap:               0.5
 (Enter /opt/gaussian/g16/l103.exe)

 GradGradGradGradGradGradGradGradGradGradGradGradGradGradGradGradGradGrad
 Berny optimization.
 Initialization pass.
 Trust Radius=3.00D-01 FncErr=1.00D-07 GrdErr=1.00D-07 EigMax=2.50D+02 EigMin=1.00D-04
 Number of steps in this run=      2 maximum allowed number of steps=      2.
 GradGradGradGradGradGradGradGradGradGradGradGradGradGradGradGradGradGrad

 Leave Link  103 at Fri Jul  7 15:27:58 2023, MaxMem=  8053063680 cpu:               0.1 elap:               0.1
 (Enter /opt/gaussian/g16/l202.exe)
 Stoichiometry    C19H26N8O10
 Framework group  C1[X(C19H26N8O10)]
 Deg. of freedom   183
 Full point group                 C1      NOp   1
 Largest Abelian subgroup         C1      NOp   1
 Largest concise Abelian subgroup C1      NOp   1
                         Standard orientation:                         
 ---------------------------------------------------------------------
 Center     Atomic      Atomic             Coordinates (Angstroms)
 Number     Number       Type             X           Y           Z
 ---------------------------------------------------------------------
      1          6           0       -5.159977    2.516666    0.133852
      2          7           0       -4.113183    3.258841    0.345209
      3          6           0       -3.037576    2.405285    0.167335
      4          6           0       -3.473758    1.125424   -0.164452
      5          7           0       -4.848923    1.198584   -0.201333
      6          6           0       -5.818339    0.119499   -0.282983
      7          6           0       -5.746295   -0.788737   -1.562729
      8          6           0       -5.913273   -2.199894   -0.951250
      9          6           0       -5.218034   -2.029451    0.398019
     10          8           0       -5.714529   -0.747322    0.841545
     11          6           0       -5.495210   -3.092270    1.440673
     12          8           0       -4.808833   -2.875751    2.664797
     13          8           0       -7.283087   -2.563709   -0.809042
     14          8           0       -4.593496   -0.652968   -2.350847
     15          7           0       -2.723839    0.028285   -0.420380
     16          6           0       -1.418458    0.243806   -0.323336
     17          7           0       -0.893246    1.460322    0.012275
     18          6           0       -1.631822    2.634349    0.276763
     19          8           0       -1.037350    3.675308    0.559647
     20          7           0       -0.550294   -0.761269   -0.546263
     21          1           0       -6.188644    2.841834    0.195214
     22          1           0       -6.791883    0.609571   -0.225294
     23          1           0       -6.590866   -0.574411   -2.217832
     24          1           0       -5.459800   -2.951742   -1.595406
     25          1           0       -4.134109   -1.948416    0.238565
     26          1           0       -5.235465   -4.067994    1.005696
     27          1           0       -6.552996   -3.117741    1.699641
     28          1           0       -3.868200   -2.749290    2.489783
     29          1           0       -7.678851   -2.036320   -0.102248
     30          1           0       -3.793702   -0.641153   -1.788678
     31          1           0        0.132607    1.566721    0.057180
     32          1           0       -0.926051   -1.636427   -0.868377
     33          1           0        0.460537   -0.615872   -0.566129
     34          6           0        3.975570    3.169827    0.584590
     35          6           0        4.740912    2.100805    0.274443
     36          7           0        4.181294    0.915202   -0.121080
     37          6           0        2.760376    0.786307   -0.196588
     38          8           0        2.283217   -0.290565   -0.562398
     39          7           0        2.003067    1.857479    0.122399
     40          6           0        2.551214    3.015029    0.503081
     41          7           0        1.734517    4.025746    0.802676
     42          6           0        4.953322   -0.273492   -0.382362
     43          6           0        6.344241   -0.189629   -1.020354
     44          6           0        6.750765   -1.671278   -0.882982
     45          6           0        6.132517   -2.044160    0.505700
     46          8           0        5.225155   -0.969460    0.840521
     47          6           0        5.432990   -3.398416    0.544527
     48          8           0        5.012891   -3.758651    1.850260
     49          8           0        6.321147   -2.475472   -1.969814
     50          8           0        7.249551    0.647296   -0.309074
     51          1           0        4.428770    4.106514    0.880102
     52          1           0        5.819549    2.128514    0.289346
     53          1           0        0.712703    3.919834    0.725059
     54          1           0        2.108892    4.914594    1.088888
     55          1           0        4.303038   -0.884230   -1.014544
     56          1           0        6.345064    0.148683   -2.054733
     57          1           0        7.835477   -1.763853   -0.878613
     58          1           0        6.911491   -2.034231    1.276445
     59          1           0        6.093118   -4.156888    0.106944
     60          1           0        4.518060   -3.367023   -0.050005
     61          1           0        5.781537   -3.978219    2.390195
     62          1           0        5.361053   -2.447830   -2.068105
     63          1           0        7.270592    0.365368    0.615948
 ---------------------------------------------------------------------
 Rotational constants (GHZ):           0.1674453           0.0417662           0.0359715
 Leave Link  202 at Fri Jul  7 15:27:59 2023, MaxMem=  8053063680 cpu:               0.0 elap:               0.0
 (Enter /opt/gaussian/g16/l301.exe)
 Standard basis: 6-311++G(d) (5D, 7F)
 Ernie: Thresh=  0.10000D-02 Tol=  0.10000D-05 Strict=F.
 There are   955 symmetry adapted cartesian basis functions of A   symmetry.
 There are   918 symmetry adapted basis functions of A   symmetry.
   918 basis functions,  1488 primitive gaussians,   955 cartesian basis functions
   138 alpha electrons      138 beta electrons
       nuclear repulsion energy      4195.0166792854 Hartrees.
 IExCor=  402 DFT=T Ex+Corr=B3LYP ExCW=0 ScaHFX=  0.200000
 ScaDFX=  0.800000  0.720000  1.000000  0.810000 ScalE2=  1.000000  1.000000
 IRadAn=      5 IRanWt=     -1 IRanGd=            0 ICorTp=0 IEmpDi=141
 NAtoms=   63 NActive=   63 NUniq=   63 SFac= 1.00D+00 NAtFMM=   60 NAOKFM=T Big=T
 Integral buffers will be    131072 words long.
 Raffenetti 2 integral format.
 Two-electron integral symmetry is turned on.
 R6Disp:  Grimme-D3(BJ) Dispersion energy=       -0.1351097710 Hartrees.
 Nuclear repulsion after empirical dispersion term =     4194.8815695144 Hartrees.
 Leave Link  301 at Fri Jul  7 15:27:59 2023, MaxMem=  8053063680 cpu:               0.2 elap:               0.2
 (Enter /opt/gaussian/g16/l302.exe)
 NPDir=0 NMtPBC=     1 NCelOv=     1 NCel=       1 NClECP=     1 NCelD=      1
         NCelK=      1 NCelE2=     1 NClLst=     1 CellRange=     0.0.
 One-electron integrals computed using PRISM.
 One-electron integral symmetry used in STVInt
 NBasis=   918 RedAO= T EigKep=  1.53D-06  NBF=   918
 NBsUse=   915 1.00D-06 EigRej=  8.55D-07 NBFU=   915
 Precomputing XC quadrature grid using
 IXCGrd= 4 IRadAn=           5 IRanWt=          -1 IRanGd=           0 AccXCQ= 0.00D+00.
 Generated NRdTot=       0 NPtTot=           0 NUsed=           0 NTot=          32
 NSgBfM=   929   929   929   929   929 MxSgAt=    63 MxSgA2=    63.
 Leave Link  302 at Fri Jul  7 15:28:12 2023, MaxMem=  8053063680 cpu:              13.1 elap:              13.1
 (Enter /opt/gaussian/g16/l303.exe)
 DipDrv:  MaxL=1.
 Leave Link  303 at Fri Jul  7 15:28:12 2023, MaxMem=  8053063680 cpu:               0.4 elap:               0.4
 (Enter /opt/gaussian/g16/l401.exe)
 ExpMin= 3.60D-02 ExpMax= 8.59D+03 ExpMxC= 1.30D+03 IAcc=3 IRadAn=         5 AccDes= 0.00D+00
 Harris functional with IExCor=  402 and IRadAn=       5 diagonalized for initial guess.
 HarFok:  IExCor=  402 AccDes= 0.00D+00 IRadAn=         5 IDoV= 1 UseB2=F ITyADJ=14
 ICtDFT=  3500011 ScaDFX=  1.000000  1.000000  1.000000  1.000000
 FoFCou: FMM=F IPFlag=           0 FMFlag=      100000 FMFlg1=        2001
         NFxFlg=           0 DoJE=T BraDBF=F KetDBF=T FulRan=T
         wScrn=  0.000000 ICntrl=       500 IOpCl=  0 I1Cent=   200000004 NGrid=           0
         NMat0=    1 NMatS0=      1 NMatT0=    0 NMatD0=    1 NMtDS0=    0 NMtDT0=    0
 Petite list used in FoFCou.
 Harris En= -1930.51977882165    
 JPrj=0 DoOrth=F DoCkMO=F.
 Leave Link  401 at Fri Jul  7 15:30:32 2023, MaxMem=  8053063680 cpu:             140.0 elap:             140.0
 (Enter /opt/gaussian/g16/l508.exe)
 Integral symmetry usage will be decided dynamically.
 Tight linear equation convergence will be used.
 RB3LYP wavefunction.
 Quadratic Convergence SCF Method.
 Line search only if initial step raises energy.
 Fock matrices will be formed incrementally for  20 cycles.
 FoFJK:  IHMeth= 1 ICntrl=       0 DoSepK=F KAlg= 0 I1Cent=           0 FoldK=F
 IRaf= 790000000 NMat=       1 IRICut=       1 DoRegI=T DoRafI=F ISym2E= 1 IDoP0=0 IntGTp=1.
 FoFCou: FMM=T IPFlag=           0 FMFlag=      100000 FMFlg1=        2001
         NFxFlg=           0 DoJE=F BraDBF=F KetDBF=F FulRan=T
         wScrn=  0.000000 ICntrl=         0 IOpCl=  0 I1Cent=           0 NGrid=           0
         NMat0=    1 NMatS0=      1 NMatT0=    0 NMatD0=    1 NMtDS0=    0 NMtDT0=    0
 Petite list used in FoFCou.
 FMM levels:  10  Number of levels for PrismC:   9
 Iteration   1 EE= -1929.70766932102                                    Grad=1.596D+00 Max rot=    3.6686 deg.
 Gradient too large for Newton-Raphson -- use scaled steepest descent instead.
 Alpha Gap=     0.118 HL deriv= 8.21D-03
     ILin= 1 X=0.000D+00 Y=-1.929707669321D+03 DE= 0.00D+00 F= -4.59D+00
 RMSU=  5.93D-03    CP:  1.14D+00
     ILin= 2 X=3.000D-01 Y=-1.930489031851D+03 DE=-7.81D-01 F= -5.88D-01 OKLS=F
 RMSU=  3.21D-04    CP:  1.20D+00  1.38D+00
     ILin= 3 X=4.000D-01 Y=-1.930479685927D+03 DE=-7.72D-01 F=  7.76D-01
     An  expanding polynomial of degree  3 produced  0.3431
 RMSU=  2.75D-07    CP:  1.16D+00  1.16D+00  3.70D-01
 Iteration   2 EE= -1930.50173607716     Delta-E=       -0.794066756137 Grad=4.682D-01 Max rot=    1.1051 deg.
 Gradient too large for Newton-Raphson -- use scaled steepest descent instead.
 Alpha Gap=     0.157 HL deriv= 4.95D-03
     ILin= 1 X=0.000D+00 Y=-1.930501736077D+03 DE= 0.00D+00 F= -2.88D-01
 RMSU=  1.34D-03    CP:  1.18D+00  1.36D+00  7.76D-01 -3.00D+00
     ILin= 2 X=3.000D-01 Y=-1.930556915397D+03 DE=-5.52D-02 F= -8.00D-02 OKLS=F
 RMSU=  4.54D-05    CP:  1.19D+00  1.49D+00  1.14D+00 -3.00D+00  1.68D+00
     ILin= 3 X=5.000D-01 Y=-1.930559153193D+03 DE=-5.74D-02 F=  5.74D-02
     Accept linear search using points  2 and  3.
     An  expanding polynomial of degree  3 produced  0.3966
 RMSU=  6.69D-08    CP:  1.18D+00  1.42D+00  9.44D-01 -3.00D+00  1.33D+00
                    CP:  3.83D-01
 Iteration   3 EE= -1930.56142801132     Delta-E=       -0.059691934161 Grad=2.273D-01 Max rot=    0.6659 deg.
 Gradient too large for Newton-Raphson -- use scaled steepest descent instead.
 Alpha Gap=     0.152 HL deriv= 2.91D-03
     ILin= 1 X=0.000D+00 Y=-1.930561428011D+03 DE= 0.00D+00 F= -5.09D-02
 RMSU=  6.95D-04    CP:  1.22D+00  1.67D+00  1.65D+00 -3.00D+00  1.77D+00
                    CP:  3.00D+00 -3.00D+00
     ILin= 2 X=4.000D-01 Y=-1.930572794678D+03 DE=-1.14D-02 F= -5.97D-03 OKLS=F
 RMSU=  1.11D-04    CP:  1.25D+00  1.86D+00  2.30D+00 -3.00D+00  2.12D+00
                    CP:  3.00D+00 -3.00D+00  1.79D+00
     ILin= 3 X=7.000D-01 Y=-1.930569541931D+03 DE=-8.11D-03 F=  2.76D-02
     An  expanding polynomial of degree  3 produced  0.4533
 RMSU=  1.34D-06    CP:  1.22D+00  1.70D+00  1.76D+00 -3.00D+00  1.83D+00
                    CP:  3.00D+00 -3.00D+00  1.14D+00  1.64D-01
 Iteration   4 EE= -1930.57295370711     Delta-E=       -0.011525695789 Grad=1.169D-01 Max rot=    0.3481 deg.
 Gradient too large for Newton-Raphson -- use scaled steepest descent instead.
 Alpha Gap=     0.155 HL deriv= 2.13D-03
     ILin= 1 X=0.000D+00 Y=-1.930572953707D+03 DE= 0.00D+00 F= -1.42D-02
 RMSU=  1.84D-04    CP:  1.23D+00  1.77D+00  2.03D+00 -3.00D+00  2.26D+00
                    CP:  3.00D+00 -3.00D+00  1.33D+00  7.64D-01  3.00D+00
     ILin= 2 X=4.000D-01 Y=-1.930575766911D+03 DE=-2.81D-03 F=  1.19D-04 OKLS=F
 RMSU=  6.64D-06    CP:  1.23D+00  1.85D+00  2.32D+00 -3.00D+00  2.69D+00
                    CP:  3.00D+00 -3.00D+00  1.53D+00  1.48D+00  3.00D+00
                    CP:  2.01D+00
     ILin= 3 X=8.000D-01 Y=-1.930572866034D+03 DE= 8.77D-05 F=  1.44D-02
     An  expanding polynomial of degree  3 produced  0.3969
     Minimum is close to point  2 DX= -3.07D-03 DF= -1.68D-07 DXR=  7.73D-03 DFR=  5.98D-05 which will be used.
 Iteration   5 EE= -1930.57576691074     Delta-E=       -0.002813203635 Grad=6.353D-02 Max rot=    0.2306 deg.
 Gradient too large for Newton-Raphson -- use scaled steepest descent instead.
 Alpha Gap=     0.154 HL deriv= 1.02D-03
     ILin= 1 X=0.000D+00 Y=-1.930575766911D+03 DE= 0.00D+00 F= -3.47D-03
 RMSU=  6.23D-05    CP:  1.24D+00  1.84D+00  2.26D+00 -3.00D+00  2.41D+00
                    CP:  3.00D+00 -3.00D+00  1.66D+00  1.12D+00  3.00D+00
                    CP:  1.16D+00 -3.69D-01
     ILin= 2 X=4.000D-01 Y=-1.930576546181D+03 DE=-7.79D-04 F= -4.23D-04 OKLS=F
 RMSU=  3.13D-06    CP:  1.24D+00  1.90D+00  2.50D+00 -3.00D+00  2.57D+00
                    CP:  3.00D+00 -3.00D+00  1.98D+00  1.52D+00  3.00D+00
                    CP:  1.33D+00 -8.37D-01  2.00D+00
     ILin= 3 X=8.000D-01 Y=-1.930576105165D+03 DE=-3.38D-04 F=  2.63D-03
     An  expanding polynomial of degree  3 produced  0.4554
 RMSU=  2.75D-10    CP:  1.24D+00  1.85D+00  2.29D+00 -3.00D+00  2.43D+00
                    CP:  3.00D+00 -3.00D+00  1.70D+00  1.18D+00  3.00D+00
                    CP:  1.19D+00 -4.28D-01  1.14D+00  7.89D-02
 Iteration   6 EE= -1930.57655789014     Delta-E=       -0.000790979395 Grad=3.503D-02 Max rot=    0.1108 deg.
 Gradient too large for Newton-Raphson -- use scaled steepest descent instead.
 Alpha Gap=     0.155 HL deriv= 7.41D-04
     ILin= 1 X=0.000D+00 Y=-1.930576557890D+03 DE= 0.00D+00 F= -1.16D-03
 RMSU=  2.31D-05    CP:  1.24D+00  1.87D+00  2.40D+00 -3.00D+00  2.58D+00
                    CP:  3.00D+00 -3.00D+00  1.76D+00  1.40D+00  3.00D+00
                    CP:  1.60D+00 -3.97D-01  1.48D+00  2.79D+00 -3.00D+00
     ILin= 2 X=4.000D-01 Y=-1.930576796031D+03 DE=-2.38D-04 F= -2.67D-05 OKLS=F
 RMSU=  1.04D-05    CP:  1.24D+00  1.90D+00  2.54D+00 -3.00D+00  2.77D+00
                    CP:  3.00D+00 -3.00D+00  1.83D+00  1.69D+00  3.00D+00
                    CP:  2.12D+00 -1.95D-01  1.90D+00  3.00D+00 -3.00D+00
                    CP:  2.24D+00
     ILin= 3 X=9.000D-01 Y=-1.930576454211D+03 DE= 1.04D-04 F=  1.39D-03
     An  expanding polynomial of degree  3 produced  0.4095
     Minimum is close to point  2 DX=  9.47D-03 DF= -1.27D-07 DXR=  2.31D-02 DFR=  5.35D-04 which will be used.
 Iteration   7 EE= -1930.57679603088     Delta-E=       -0.000238140742 Grad=1.979D-02 Max rot=    0.0759 deg.
 Gradient too large for Newton-Raphson -- use scaled steepest descent instead.
 Alpha Gap=     0.155 HL deriv= 3.60D-04
     ILin= 1 X=0.000D+00 Y=-1.930576796031D+03 DE= 0.00D+00 F= -3.16D-04
 RMSU=  6.97D-06    CP:  1.24D+00  1.89D+00  2.48D+00 -3.00D+00  2.64D+00
                    CP:  3.00D+00 -3.00D+00  1.85D+00  1.52D+00  3.00D+00
                    CP:  1.69D+00 -6.64D-01  2.02D+00  3.00D+00 -3.00D+00
                    CP:  1.35D+00  3.06D-01
     ILin= 2 X=4.000D-01 Y=-1.930576870494D+03 DE=-7.45D-05 F= -5.61D-05 OKLS=F
 RMSU=  1.53D-07    CP:  1.24D+00  1.91D+00  2.58D+00 -3.00D+00  2.72D+00
                    CP:  3.00D+00 -3.00D+00  1.98D+00  1.67D+00  3.00D+00
                    CP:  1.79D+00 -9.99D-01  2.71D+00  3.00D+00 -3.00D+00
                    CP:  1.80D+00  8.11D-01  2.25D+00
     ILin= 3 X=9.000D-01 Y=-1.930576817262D+03 DE=-2.12D-05 F=  2.69D-04
     An  expanding polynomial of degree  3 produced  0.4863
 RMSU=  2.36D-09    CP:  1.24D+00  1.89D+00  2.50D+00 -3.00D+00  2.65D+00
                    CP:  3.00D+00 -3.00D+00  1.88D+00  1.54D+00  3.00D+00
                    CP:  1.70D+00 -7.21D-01  2.14D+00  3.00D+00 -3.00D+00
                    CP:  1.43D+00  3.89D-01  1.22D+00  9.02D-02
 Iteration   8 EE= -1930.57687291408     Delta-E=       -0.000076883203 Grad=1.089D-02 Max rot=    0.0374 deg.
 Gradient too large for Newton-Raphson -- use scaled steepest descent instead.
 Alpha Gap=     0.155 HL deriv= 2.77D-04
     ILin= 1 X=0.000D+00 Y=-1.930576872914D+03 DE= 0.00D+00 F= -1.27D-04
 Restarting incremental Fock formation.
     ILin= 2 X=4.000D-01 Y=-1.930576897879D+03 DE=-2.50D-05 F=  1.81D-06 OKLS=F
 RMSU=  1.12D-04    CP:  1.00D+00
     ILin= 3 X=9.000D-01 Y=-1.930576856851D+03 DE= 1.61D-05 F=  1.62D-04
     An  expanding polynomial of degree  3 produced  0.3944
     Minimum is close to point  2 DX= -5.59D-03 DF= -5.02D-09 DXR=  1.42D-02 DFR=  2.01D-04 which will be used.
 Iteration   9 EE= -1930.57689787864     Delta-E=       -0.000024964560 Grad=6.182D-03 Max rot=    0.0265 deg.
 QCNR:  CnvC1=4.63D-08 CnvC2=4.63D-07
 LinEq1:  Iter=  0 NonCon=     1 RMS=1.33D-05 Max=2.46D-03 NDo=     1
 AX will form     1 AO Fock derivatives at one time.
 LinEq1:  Iter=  1 NonCon=     1 RMS=1.41D-05 Max=9.12D-04 NDo=     1
 LinEq1:  Iter=  2 NonCon=     1 RMS=2.10D-06 Max=2.65D-04 NDo=     1
 LinEq1:  Iter=  3 NonCon=     1 RMS=2.14D-06 Max=2.25D-04 NDo=     1
 LinEq1:  Iter=  4 NonCon=     1 RMS=9.19D-07 Max=5.15D-05 NDo=     1
 LinEq1:  Iter=  5 NonCon=     1 RMS=7.62D-07 Max=5.68D-05 NDo=     1
 LinEq1:  Iter=  6 NonCon=     1 RMS=3.23D-07 Max=1.46D-05 NDo=     1
 LinEq1:  Iter=  7 NonCon=     1 RMS=2.15D-07 Max=1.37D-05 NDo=     1
 LinEq1:  Iter=  8 NonCon=     1 RMS=1.37D-07 Max=8.69D-06 NDo=     1
 LinEq1:  Iter=  9 NonCon=     1 RMS=7.19D-08 Max=3.47D-06 NDo=     1
 LinEq1:  Iter= 10 NonCon=     1 RMS=4.90D-08 Max=4.17D-06 NDo=     1
 LinEq1:  Iter= 11 NonCon=     1 RMS=2.74D-08 Max=1.51D-06 NDo=     1
 LinEq1:  Iter= 12 NonCon=     1 RMS=2.11D-08 Max=1.28D-06 NDo=     1
 LinEq1:  Iter= 13 NonCon=     1 RMS=1.07D-08 Max=9.55D-07 NDo=     1
 LinEq1:  Iter= 14 NonCon=     1 RMS=6.74D-09 Max=5.68D-07 NDo=     1
 LinEq1:  Iter= 15 NonCon=     0 RMS=4.76D-09 Max=3.87D-07 NDo=     1
 Linear equations converged to 4.631D-08 4.631D-07 after    15 iterations.
 Angle between quadratic step and gradient=  62.97 degrees.
     ILin= 1 X=0.000D+00 Y=-1.930576897879D+03 DE= 0.00D+00 F= -2.59D-05
 RMSU=  4.45D-05    CP:  1.00D+00  1.21D+00
     ILin= 2 X=1.000D+00 Y=-1.930576910852D+03 DE=-1.30D-05 F=  3.27D-09 OKLS=T
     Accept linear search using points  1 and  2.
     An  expanding polynomial of degree  2 produced  0.9999
     Minimum is close to point  2 DX= -1.26D-04 DF= -2.27D-13 DXR=  1.26D-04 DFR=  1.75D-08 which will be used.
 Iteration  10 EE= -1930.57691085206     Delta-E=       -0.000012973415 Grad=2.423D-06 Max rot=    0.0000 deg.
 Rotation gradient small -- convergence achieved.
 SCF Done:  E(RB3LYP) =  -1930.57691085     a.u. after   10 cycles
            Convg  =    0.2423D-05                    38 Fock formations.
              S**2 =  0.0000                  -V/T =  2.0036
 Leave Link  508 at Sat Jul  8 03:20:17 2023, MaxMem=  8053063680 cpu:           42579.0 elap:           42587.2
 (Enter /opt/gaussian/g16/l801.exe)
 DoSCS=F DFT=T ScalE2(SS,OS)=  1.000000  1.000000
 Range of M.O.s used for correlation:     1   915
 NBasis=   918 NAE=   138 NBE=   138 NFC=     0 NFV=     0
 NROrb=    915 NOA=   138 NOB=   138 NVA=   777 NVB=   777

 **** Warning!!: The largest alpha MO coefficient is  0.12700657D+03

 Leave Link  801 at Sat Jul  8 03:20:17 2023, MaxMem=  8053063680 cpu:               0.1 elap:               0.1
 (Enter /opt/gaussian/g16/l1101.exe)
 Using compressed storage, NAtomX=    63.
 Will process     64 centers per pass.
 R6Disp: Adding Grimme-D3(BJ) dispersion energy 1st derivatives to the gradient.
 Leave Link 1101 at Sat Jul  8 03:20:26 2023, MaxMem=  8053063680 cpu:               9.1 elap:               9.1
 (Enter /opt/gaussian/g16/l1102.exe)
 Symmetrizing basis deriv contribution to polar:
 IMax=3 JMax=2 DiffMx= 0.00D+00
 Leave Link 1102 at Sat Jul  8 03:20:26 2023, MaxMem=  8053063680 cpu:               0.4 elap:               0.4
 (Enter /opt/gaussian/g16/l1110.exe)
 Forming Gx(P) for the SCF density, NAtomX=    63.
 Integral derivatives from FoFJK, PRISM(SPDF).
 Do as many integral derivatives as possible in FoFJK.
 G2DrvN: MDV=    8053057055.
 G2DrvN: will do    64 centers at a time, making    1 passes.
 Calling FoFCou, ICntrl=  3107 FMM=T I1Cent=   0 AccDes= 0.00D+00.
 FoFJK:  IHMeth= 1 ICntrl=    3107 DoSepK=F KAlg= 0 I1Cent=           0 FoldK=F
 IRaf=         0 NMat=       1 IRICut=       1 DoRegI=T DoRafI=F ISym2E= 0 IDoP0=0 IntGTp=1.
 FoFCou: FMM=T IPFlag=           0 FMFlag=      100000 FMFlg1=        2001
         NFxFlg=           0 DoJE=F BraDBF=F KetDBF=F FulRan=T
         wScrn=  0.000000 ICntrl=      3107 IOpCl=  0 I1Cent=           0 NGrid=           0
         NMat0=    1 NMatS0=      1 NMatT0=    0 NMatD0=    1 NMtDS0=    0 NMtDT0=    0
 Symmetry not used in FoFCou.
 FMM levels:  10  Number of levels for PrismC:   9
 End of G2Drv F.D. properties file   721 does not exist.
 End of G2Drv F.D. properties file   722 does not exist.
 End of G2Drv F.D. properties file   788 does not exist.
 Leave Link 1110 at Sat Jul  8 12:31:32 2023, MaxMem=  8053063680 cpu:           33098.8 elap:           33099.3
 (Enter /opt/gaussian/g16/l1002.exe)
 Minotr:  Closed shell wavefunction.
          IDoAtm=11111111111111111111111111111111111111111111111111
          IDoAtm=1111111111111
          Direct CPHF calculation.
          Differentiating once with respect to electric field.
                with respect to dipole field.
          Differentiating once with respect to nuclear coordinates.
          Requested convergence is 1.0D-08 RMS, and 1.0D-07 maximum.
          Secondary convergence is 1.0D-12 RMS, and 1.0D-12 maximum.
          NewPWx=T KeepS1=F KeepF1=F KeepIn=T MapXYZ=F SortEE=F KeepMc=T.
        19839 words used for storage of precomputed grid.
 Two-electron integrals replicated using symmetry.
          MDV=    8053063680 using IRadAn=       1.
          Solving linear equations simultaneously, MaxMat=      72.
 FoF2E skips out because all densities are zero.
 CalDSu exits because no D1Ps are significant.
 FoFJK:  IHMeth= 1 ICntrl=       0 DoSepK=F KAlg= 0 I1Cent=           0 FoldK=F
 IRaf= 790000000 NMat=      72 IRICut=       1 DoRegI=T DoRafI=F ISym2E= 2 IDoP0=3 IntGTp=3.
 FoFCou: FMM=T IPFlag=           0 FMFlag=      100000 FMFlg1=        2001
         NFxFlg=           0 DoJE=F BraDBF=F KetDBF=F FulRan=T
         wScrn=  0.000000 ICntrl=         0 IOpCl=  0 I1Cent=           0 NGrid=           0
         NMat0=   72 NMatS0=     72 NMatT0=    0 NMatD0=   72 NMtDS0=    0 NMtDT0=    0
 Symmetry not used in FoFCou.
 FMM levels:  10  Number of levels for PrismC:   9
          There are   192 degrees of freedom in the 1st order CPHF.  IDoFFX=6 NUNeed=     3.
    189 vectors produced by pass  0 Test12= 1.07D-13 1.00D-09 XBig12= 3.51D+02 6.88D+00.
 AX will form    72 AO Fock derivatives at one time.
    189 vectors produced by pass  1 Test12= 1.07D-13 1.00D-09 XBig12= 1.09D+02 1.72D+00.
    189 vectors produced by pass  2 Test12= 1.07D-13 1.00D-09 XBig12= 1.14D+00 7.55D-02.
    189 vectors produced by pass  3 Test12= 1.07D-13 1.00D-09 XBig12= 6.82D-03 5.14D-03.
    189 vectors produced by pass  4 Test12= 1.07D-13 1.00D-09 XBig12= 1.75D-05 2.08D-04.
    185 vectors produced by pass  5 Test12= 1.07D-13 1.00D-09 XBig12= 3.00D-08 6.42D-06.
     58 vectors produced by pass  6 Test12= 1.07D-13 1.00D-09 XBig12= 4.07D-11 3.18D-07.
      3 vectors produced by pass  7 Test12= 1.07D-13 1.00D-09 XBig12= 5.35D-14 1.88D-08.
 InvSVY:  IOpt=1 It=  1 EMax= 1.60D-14
 Solved reduced A of dimension  1191 with   192 vectors.
 FullF1:  Do perturbations      1 to       3.
 Isotropic polarizability for W=    0.000000      327.71 Bohr**3.
 End of Minotr F.D. properties file   721 does not exist.
 End of Minotr F.D. properties file   722 does not exist.
 End of Minotr F.D. properties file   788 does not exist.
 Leave Link 1002 at Thu Jul 13 01:52:34 2023, MaxMem=  8053063680 cpu:          394188.9 elap:          394208.5
 (Enter /opt/gaussian/g16/l601.exe)
 Copying SCF densities to generalized density rwf, IOpCl= 0 IROHF=0.

 **********************************************************************

            Population analysis using the SCF Density.

 **********************************************************************

 Orbital symmetries:
       Occupied  (A) (A) (A) (A) (A) (A) (A) (A) (A) (A) (A) (A)
                 (A) (A) (A) (A) (A) (A) (A) (A) (A) (A) (A) (A)
                 (A) (A) (A) (A) (A) (A) (A) (A) (A) (A) (A) (A)
                 (A) (A) (A) (A) (A) (A) (A) (A) (A) (A) (A) (A)
                 (A) (A) (A) (A) (A) (A) (A) (A) (A) (A) (A) (A)
                 (A) (A) (A) (A) (A) (A) (A) (A) (A) (A) (A) (A)
                 (A) (A) (A) (A) (A) (A) (A) (A) (A) (A) (A) (A)
                 (A) (A) (A) (A) (A) (A) (A) (A) (A) (A) (A) (A)
                 (A) (A) (A) (A) (A) (A) (A) (A) (A) (A) (A) (A)
                 (A) (A) (A) (A) (A) (A) (A) (A) (A) (A) (A) (A)
                 (A) (A) (A) (A) (A) (A) (A) (A) (A) (A) (A) (A)
                 (A) (A) (A) (A) (A) (A)
       Virtual   (A) (A) (A) (A) (A) (A) (A) (A) (A) (A) (A) (A)
                 (A) (A) (A) (A) (A) (A) (A) (A) (A) (A) (A) (A)
                 (A) (A) (A) (A) (A) (A) (A) (A) (A) (A) (A) (A)
                 (A) (A) (A) (A) (A) (A) (A) (A) (A) (A) (A) (A)
                 (A) (A) (A) (A) (A) (A) (A) (A) (A) (A) (A) (A)
                 (A) (A) (A) (A) (A) (A) (A) (A) (A) (A) (A) (A)
                 (A) (A) (A) (A) (A) (A) (A) (A) (A) (A) (A) (A)
                 (A) (A) (A) (A) (A) (A) (A) (A) (A) (A) (A) (A)
                 (A) (A) (A) (A) (A) (A) (A) (A) (A) (A) (A) (A)
                 (A) (A) (A) (A) (A) (A) (A) (A) (A) (A) (A) (A)
                 (A) (A) (A) (A) (A) (A) (A) (A) (A) (A) (A) (A)
                 (A) (A) (A) (A) (A) (A) (A) (A) (A) (A) (A) (A)
                 (A) (A) (A) (A) (A) (A) (A) (A) (A) (A) (A) (A)
                 (A) (A) (A) (A) (A) (A) (A) (A) (A) (A) (A) (A)
                 (A) (A) (A) (A) (A) (A) (A) (A) (A) (A) (A) (A)
                 (A) (A) (A) (A) (A) (A) (A) (A) (A) (A) (A) (A)
                 (A) (A) (A) (A) (A) (A) (A) (A) (A) (A) (A) (A)
                 (A) (A) (A) (A) (A) (A) (A) (A) (A) (A) (A) (A)
                 (A) (A) (A) (A) (A) (A) (A) (A) (A) (A) (A) (A)
                 (A) (A) (A) (A) (A) (A) (A) (A) (A) (A) (A) (A)
                 (A) (A) (A) (A) (A) (A) (A) (A) (A) (A) (A) (A)
                 (A) (A) (A) (A) (A) (A) (A) (A) (A) (A) (A) (A)
                 (A) (A) (A) (A) (A) (A) (A) (A) (A) (A) (A) (A)
                 (A) (A) (A) (A) (A) (A) (A) (A) (A) (A) (A) (A)
                 (A) (A) (A) (A) (A) (A) (A) (A) (A) (A) (A) (A)
                 (A) (A) (A) (A) (A) (A) (A) (A) (A) (A) (A) (A)
                 (A) (A) (A) (A) (A) (A) (A) (A) (A) (A) (A) (A)
                 (A) (A) (A) (A) (A) (A) (A) (A) (A) (A) (A) (A)
                 (A) (A) (A) (A) (A) (A) (A) (A) (A) (A) (A) (A)
                 (A) (A) (A) (A) (A) (A) (A) (A) (A) (A) (A) (A)
                 (A) (A) (A) (A) (A) (A) (A) (A) (A) (A) (A) (A)
                 (A) (A) (A) (A) (A) (A) (A) (A) (A) (A) (A) (A)
                 (A) (A) (A) (A) (A) (A) (A) (A) (A) (A) (A) (A)
                 (A) (A) (A) (A) (A) (A) (A) (A) (A) (A) (A) (A)
                 (A) (A) (A) (A) (A) (A) (A) (A) (A) (A) (A) (A)
                 (A) (A) (A) (A) (A) (A) (A) (A) (A) (A) (A) (A)
                 (A) (A) (A) (A) (A) (A) (A) (A) (A) (A) (A) (A)
                 (A) (A) (A) (A) (A) (A) (A) (A) (A) (A) (A) (A)
                 (A) (A) (A) (A) (A) (A) (A) (A) (A) (A) (A) (A)
                 (A) (A) (A) (A) (A) (A) (A) (A) (A) (A) (A) (A)
                 (A) (A) (A) (A) (A) (A) (A) (A) (A) (A) (A) (A)
                 (A) (A) (A) (A) (A) (A) (A) (A) (A) (A) (A) (A)
                 (A) (A) (A) (A) (A) (A) (A) (A) (A) (A) (A) (A)
                 (A) (A) (A) (A) (A) (A) (A) (A) (A) (A) (A) (A)
                 (A) (A) (A) (A) (A) (A) (A) (A) (A) (A) (A) (A)
                 (A) (A) (A) (A) (A) (A) (A) (A) (A) (A) (A) (A)
                 (A) (A) (A) (A) (A) (A) (A) (A) (A) (A) (A) (A)
                 (A) (A) (A) (A) (A) (A) (A) (A) (A) (A) (A) (A)
                 (A) (A) (A) (A) (A) (A) (A) (A) (A) (A) (A) (A)
                 (A) (A) (A) (A) (A) (A) (A) (A) (A) (A) (A) (A)
                 (A) (A) (A) (A) (A) (A) (A) (A) (A) (A) (A) (A)
                 (A) (A) (A) (A) (A) (A) (A) (A) (A) (A) (A) (A)
                 (A) (A) (A) (A) (A) (A) (A) (A) (A) (A) (A) (A)
                 (A) (A) (A) (A) (A) (A) (A) (A) (A) (A) (A) (A)
                 (A) (A) (A) (A) (A) (A) (A) (A) (A) (A) (A) (A)
                 (A) (A) (A) (A) (A) (A) (A) (A) (A) (A) (A) (A)
                 (A) (A) (A) (A) (A) (A) (A) (A) (A) (A) (A) (A)
                 (A) (A) (A) (A) (A) (A) (A) (A) (A) (A) (A) (A)
                 (A) (A) (A) (A) (A) (A) (A) (A) (A) (A) (A) (A)
                 (A) (A) (A) (A) (A) (A) (A) (A) (A) (A) (A) (A)
                 (A) (A) (A) (A) (A) (A) (A) (A) (A) (A) (A) (A)
                 (A) (A) (A) (A) (A) (A) (A) (A) (A) (A) (A) (A)
                 (A) (A) (A) (A) (A) (A) (A) (A) (A) (A) (A) (A)
                 (A) (A) (A) (A) (A) (A) (A) (A) (A) (A) (A) (A)
                 (A) (A) (A) (A) (A) (A) (A) (A) (A)
 The electronic state is 1-A.
 Alpha  occ. eigenvalues --  -19.17226 -19.16682 -19.16595 -19.14693 -19.14586
 Alpha  occ. eigenvalues --  -19.13804 -19.12638 -19.12095 -19.11539 -19.09822
 Alpha  occ. eigenvalues --  -14.40562 -14.37972 -14.36092 -14.35410 -14.34026
 Alpha  occ. eigenvalues --  -14.32656 -14.32044 -14.30603 -10.32694 -10.30950
 Alpha  occ. eigenvalues --  -10.29804 -10.29723 -10.28764 -10.28316 -10.26919
 Alpha  occ. eigenvalues --  -10.26744 -10.26323 -10.26143 -10.25287 -10.24557
 Alpha  occ. eigenvalues --  -10.23776 -10.23712 -10.23471 -10.23361 -10.22481
 Alpha  occ. eigenvalues --  -10.21010 -10.19364  -1.11018  -1.08402  -1.08355
 Alpha  occ. eigenvalues --   -1.07012  -1.06573  -1.05763  -1.04930  -1.04071
 Alpha  occ. eigenvalues --   -1.03446  -1.02799  -1.02518  -1.01035  -1.00621
 Alpha  occ. eigenvalues --   -0.98252  -0.91643  -0.91417  -0.90768  -0.89455
 Alpha  occ. eigenvalues --   -0.82767  -0.80869  -0.78833  -0.78601  -0.77371
 Alpha  occ. eigenvalues --   -0.76195  -0.72412  -0.70459  -0.69943  -0.68181
 Alpha  occ. eigenvalues --   -0.67420  -0.66543  -0.65528  -0.64181  -0.63837
 Alpha  occ. eigenvalues --   -0.61985  -0.60870  -0.60540  -0.60006  -0.57802
 Alpha  occ. eigenvalues --   -0.56647  -0.56306  -0.56127  -0.55292  -0.55051
 Alpha  occ. eigenvalues --   -0.54510  -0.53373  -0.53050  -0.52024  -0.51947
 Alpha  occ. eigenvalues --   -0.51412  -0.50970  -0.50787  -0.50072  -0.49521
 Alpha  occ. eigenvalues --   -0.49201  -0.48088  -0.47830  -0.47225  -0.46732
 Alpha  occ. eigenvalues --   -0.46464  -0.46301  -0.45745  -0.45299  -0.45033
 Alpha  occ. eigenvalues --   -0.44729  -0.43881  -0.43289  -0.43014  -0.42739
 Alpha  occ. eigenvalues --   -0.42138  -0.41797  -0.41586  -0.40769  -0.40599
 Alpha  occ. eigenvalues --   -0.39744  -0.39680  -0.39181  -0.38005  -0.36967
 Alpha  occ. eigenvalues --   -0.36234  -0.36113  -0.34927  -0.34762  -0.33633
 Alpha  occ. eigenvalues --   -0.32732  -0.32635  -0.32105  -0.31713  -0.31409
 Alpha  occ. eigenvalues --   -0.30868  -0.30512  -0.30377  -0.28978  -0.28643
 Alpha  occ. eigenvalues --   -0.28616  -0.28081  -0.27971  -0.27473  -0.27127
 Alpha  occ. eigenvalues --   -0.26889  -0.26247  -0.21644
 Alpha virt. eigenvalues --   -0.06841  -0.03429  -0.02850  -0.02381  -0.02182
 Alpha virt. eigenvalues --   -0.02103  -0.01414  -0.01266  -0.01103  -0.00944
 Alpha virt. eigenvalues --    0.00063   0.00552   0.00654   0.01191   0.01297
 Alpha virt. eigenvalues --    0.02001   0.02232   0.02521   0.02595   0.03058
 Alpha virt. eigenvalues --    0.03417   0.03590   0.03793   0.04208   0.04818
 Alpha virt. eigenvalues --    0.04919   0.05122   0.05318   0.05540   0.05921
 Alpha virt. eigenvalues --    0.06335   0.06395   0.06705   0.07264   0.07334
 Alpha virt. eigenvalues --    0.07399   0.07537   0.07880   0.07923   0.07967
 Alpha virt. eigenvalues --    0.08468   0.08537   0.08704   0.08883   0.09055
 Alpha virt. eigenvalues --    0.09289   0.09664   0.09801   0.09937   0.10260
 Alpha virt. eigenvalues --    0.10474   0.10533   0.10729   0.11026   0.11105
 Alpha virt. eigenvalues --    0.11259   0.11280   0.11444   0.11655   0.11788
 Alpha virt. eigenvalues --    0.12168   0.12395   0.12545   0.12804   0.12864
 Alpha virt. eigenvalues --    0.12936   0.13311   0.13450   0.13561   0.13616
 Alpha virt. eigenvalues --    0.13867   0.13965   0.14129   0.14239   0.14450
 Alpha virt. eigenvalues --    0.14607   0.14682   0.14795   0.14988   0.15260
 Alpha virt. eigenvalues --    0.15451   0.15808   0.15953   0.16013   0.16225
 Alpha virt. eigenvalues --    0.16274   0.16526   0.16811   0.16878   0.17037
 Alpha virt. eigenvalues --    0.17326   0.17455   0.17708   0.17790   0.18135
 Alpha virt. eigenvalues --    0.18442   0.18745   0.18905   0.19023   0.19310
 Alpha virt. eigenvalues --    0.19372   0.19450   0.19518   0.19822   0.20224
 Alpha virt. eigenvalues --    0.20443   0.20658   0.20730   0.20829   0.20856
 Alpha virt. eigenvalues --    0.21259   0.21349   0.21626   0.21875   0.21968
 Alpha virt. eigenvalues --    0.22070   0.22337   0.22497   0.22664   0.22915
 Alpha virt. eigenvalues --    0.23038   0.23185   0.23494   0.23692   0.23926
 Alpha virt. eigenvalues --    0.24071   0.24334   0.24494   0.24812   0.24921
 Alpha virt. eigenvalues --    0.25176   0.25423   0.25500   0.25612   0.25861
 Alpha virt. eigenvalues --    0.26142   0.26431   0.26598   0.26832   0.26949
 Alpha virt. eigenvalues --    0.27158   0.27303   0.27478   0.27695   0.27736
 Alpha virt. eigenvalues --    0.27941   0.28246   0.28499   0.28638   0.28782
 Alpha virt. eigenvalues --    0.28877   0.29169   0.29313   0.29490   0.29645
 Alpha virt. eigenvalues --    0.29755   0.29987   0.30128   0.30304   0.30648
 Alpha virt. eigenvalues --    0.30683   0.30971   0.31261   0.31392   0.31596
 Alpha virt. eigenvalues --    0.31753   0.31998   0.32200   0.32383   0.32539
 Alpha virt. eigenvalues --    0.32619   0.33063   0.33180   0.33217   0.33280
 Alpha virt. eigenvalues --    0.33596   0.33665   0.33852   0.34012   0.34209
 Alpha virt. eigenvalues --    0.34385   0.34691   0.34725   0.35102   0.35430
 Alpha virt. eigenvalues --    0.35476   0.35693   0.35954   0.35990   0.36229
 Alpha virt. eigenvalues --    0.36615   0.36772   0.36927   0.36998   0.37035
 Alpha virt. eigenvalues --    0.37396   0.37608   0.37804   0.37944   0.38480
 Alpha virt. eigenvalues --    0.38678   0.38929   0.39302   0.39607   0.39842
 Alpha virt. eigenvalues --    0.40165   0.40224   0.40718   0.41075   0.41501
 Alpha virt. eigenvalues --    0.41660   0.41937   0.42161   0.42466   0.42927
 Alpha virt. eigenvalues --    0.43183   0.43716   0.44053   0.44148   0.44629
 Alpha virt. eigenvalues --    0.44899   0.45181   0.45490   0.46566   0.46894
 Alpha virt. eigenvalues --    0.47006   0.47513   0.47868   0.48436   0.48656
 Alpha virt. eigenvalues --    0.49177   0.49888   0.50469   0.50632   0.51482
 Alpha virt. eigenvalues --    0.51598   0.52024   0.52618   0.53011   0.53949
 Alpha virt. eigenvalues --    0.54195   0.54690   0.54979   0.55278   0.55767
 Alpha virt. eigenvalues --    0.56017   0.56534   0.56756   0.57569   0.57722
 Alpha virt. eigenvalues --    0.58344   0.58363   0.59188   0.59448   0.59864
 Alpha virt. eigenvalues --    0.60616   0.60639   0.60866   0.61283   0.61521
 Alpha virt. eigenvalues --    0.61685   0.62234   0.62591   0.62981   0.63103
 Alpha virt. eigenvalues --    0.63479   0.64036   0.64313   0.64484   0.64929
 Alpha virt. eigenvalues --    0.65403   0.65787   0.66206   0.66552   0.67585
 Alpha virt. eigenvalues --    0.67632   0.68084   0.68389   0.68575   0.69087
 Alpha virt. eigenvalues --    0.69636   0.69940   0.70367   0.70502   0.71140
 Alpha virt. eigenvalues --    0.71500   0.72051   0.72585   0.72736   0.73159
 Alpha virt. eigenvalues --    0.73282   0.73888   0.74159   0.74646   0.75210
 Alpha virt. eigenvalues --    0.75498   0.75583   0.75953   0.76257   0.77156
 Alpha virt. eigenvalues --    0.77366   0.77811   0.78028   0.78157   0.78346
 Alpha virt. eigenvalues --    0.79198   0.79757   0.80103   0.80588   0.80846
 Alpha virt. eigenvalues --    0.81137   0.82182   0.82847   0.83392   0.83607
 Alpha virt. eigenvalues --    0.84067   0.85088   0.86120   0.86461   0.86985
 Alpha virt. eigenvalues --    0.87684   0.88391   0.89357   0.89654   0.89825
 Alpha virt. eigenvalues --    0.90304   0.90961   0.91729   0.91896   0.92890
 Alpha virt. eigenvalues --    0.93708   0.94446   0.94657   0.95573   0.96026
 Alpha virt. eigenvalues --    0.96423   0.96634   0.97408   0.98237   0.98300
 Alpha virt. eigenvalues --    0.99014   0.99763   1.00337   1.01759   1.02659
 Alpha virt. eigenvalues --    1.02933   1.03374   1.03611   1.04667   1.04816
 Alpha virt. eigenvalues --    1.05038   1.05464   1.05816   1.07172   1.07429
 Alpha virt. eigenvalues --    1.07895   1.08598   1.09263   1.09554   1.10621
 Alpha virt. eigenvalues --    1.11316   1.11934   1.12432   1.12694   1.12934
 Alpha virt. eigenvalues --    1.13400   1.13614   1.14103   1.14724   1.15126
 Alpha virt. eigenvalues --    1.15813   1.16167   1.16434   1.17223   1.17976
 Alpha virt. eigenvalues --    1.18246   1.19020   1.19184   1.20168   1.20584
 Alpha virt. eigenvalues --    1.20718   1.21043   1.21519   1.22182   1.22586
 Alpha virt. eigenvalues --    1.22848   1.23367   1.23665   1.24315   1.24808
 Alpha virt. eigenvalues --    1.24918   1.26002   1.26612   1.27017   1.27645
 Alpha virt. eigenvalues --    1.28011   1.29275   1.29602   1.29835   1.30774
 Alpha virt. eigenvalues --    1.31459   1.31695   1.32084   1.32486   1.33189
 Alpha virt. eigenvalues --    1.33849   1.34524   1.35018   1.35313   1.35902
 Alpha virt. eigenvalues --    1.37164   1.37313   1.39138   1.39588   1.39807
 Alpha virt. eigenvalues --    1.40878   1.41819   1.42464   1.43718   1.44899
 Alpha virt. eigenvalues --    1.45178   1.47944   1.48658   1.49853   1.50418
 Alpha virt. eigenvalues --    1.52136   1.52992   1.53507   1.54586   1.54828
 Alpha virt. eigenvalues --    1.55437   1.55853   1.56166   1.56908   1.57661
 Alpha virt. eigenvalues --    1.58145   1.58764   1.59171   1.59347   1.60416
 Alpha virt. eigenvalues --    1.60941   1.61719   1.62121   1.63409   1.63633
 Alpha virt. eigenvalues --    1.63813   1.64742   1.64857   1.65224   1.66367
 Alpha virt. eigenvalues --    1.67226   1.67819   1.68552   1.69596   1.70603
 Alpha virt. eigenvalues --    1.71587   1.71660   1.72646   1.73242   1.73727
 Alpha virt. eigenvalues --    1.74404   1.74604   1.75327   1.76149   1.77450
 Alpha virt. eigenvalues --    1.78543   1.78833   1.79427   1.80116   1.80473
 Alpha virt. eigenvalues --    1.80752   1.81601   1.83472   1.83620   1.83821
 Alpha virt. eigenvalues --    1.85273   1.86285   1.86726   1.87698   1.87929
 Alpha virt. eigenvalues --    1.88043   1.88628   1.90302   1.90792   1.91387
 Alpha virt. eigenvalues --    1.91675   1.91928   1.92602   1.94770   1.95045
 Alpha virt. eigenvalues --    1.95860   1.96785   1.97582   1.98325   1.98908
 Alpha virt. eigenvalues --    1.99386   2.00156   2.01296   2.03295   2.03571
 Alpha virt. eigenvalues --    2.05166   2.06762   2.08246   2.09278   2.10922
 Alpha virt. eigenvalues --    2.11741   2.11980   2.14768   2.16276   2.16949
 Alpha virt. eigenvalues --    2.17533   2.17728   2.19100   2.19497   2.20024
 Alpha virt. eigenvalues --    2.21900   2.23910   2.24219   2.24544   2.26940
 Alpha virt. eigenvalues --    2.27719   2.28649   2.30554   2.31853   2.32394
 Alpha virt. eigenvalues --    2.34316   2.38478   2.38977   2.39175   2.40095
 Alpha virt. eigenvalues --    2.41987   2.44325   2.45266   2.46279   2.47391
 Alpha virt. eigenvalues --    2.48522   2.49289   2.49628   2.50990   2.51042
 Alpha virt. eigenvalues --    2.51604   2.52262   2.54570   2.56259   2.56886
 Alpha virt. eigenvalues --    2.57054   2.57318   2.58356   2.58881   2.59635
 Alpha virt. eigenvalues --    2.61468   2.61552   2.62970   2.63123   2.64840
 Alpha virt. eigenvalues --    2.65011   2.65793   2.67304   2.68790   2.70290
 Alpha virt. eigenvalues --    2.72553   2.72752   2.73345   2.74288   2.75177
 Alpha virt. eigenvalues --    2.76334   2.76978   2.77425   2.78033   2.79261
 Alpha virt. eigenvalues --    2.79390   2.80576   2.80861   2.81628   2.82050
 Alpha virt. eigenvalues --    2.82548   2.83528   2.84216   2.84584   2.84687
 Alpha virt. eigenvalues --    2.85340   2.85793   2.86625   2.87985   2.88293
 Alpha virt. eigenvalues --    2.89228   2.89395   2.90758   2.91033   2.91394
 Alpha virt. eigenvalues --    2.91987   2.92172   2.92593   2.92984   2.94211
 Alpha virt. eigenvalues --    2.95044   2.96060   2.97005   2.97486   2.97715
 Alpha virt. eigenvalues --    2.98155   2.99243   3.00354   3.00911   3.01771
 Alpha virt. eigenvalues --    3.02017   3.03078   3.03318   3.04411   3.04813
 Alpha virt. eigenvalues --    3.05238   3.06890   3.07160   3.07858   3.09028
 Alpha virt. eigenvalues --    3.10213   3.10964   3.11642   3.12150   3.14021
 Alpha virt. eigenvalues --    3.14410   3.15125   3.16199   3.18501   3.19806
 Alpha virt. eigenvalues --    3.20417   3.21470   3.23130   3.24977   3.25931
 Alpha virt. eigenvalues --    3.26078   3.27081   3.28435   3.29007   3.30774
 Alpha virt. eigenvalues --    3.32336   3.33006   3.33196   3.34192   3.35412
 Alpha virt. eigenvalues --    3.35542   3.35578   3.37179   3.37833   3.39913
 Alpha virt. eigenvalues --    3.41186   3.41546   3.42870   3.46508   3.46673
 Alpha virt. eigenvalues --    3.47669   3.48795   3.52846   3.54518   3.54782
 Alpha virt. eigenvalues --    3.56314   3.57582   3.59753   3.61924   3.62295
 Alpha virt. eigenvalues --    3.62826   3.67410   3.68158   3.71039   3.71850
 Alpha virt. eigenvalues --    3.74794   3.75846   3.78517   3.80595   3.83648
 Alpha virt. eigenvalues --    3.86087   3.87332   3.89492   3.89852   3.91060
 Alpha virt. eigenvalues --    3.91610   3.93880   3.94196   3.95944   3.97020
 Alpha virt. eigenvalues --    3.99527   4.00612   4.01571   4.03915   4.04792
 Alpha virt. eigenvalues --    4.07508   4.08202   4.09902   4.12965   4.14207
 Alpha virt. eigenvalues --    4.15178   4.18964   4.20127   4.20787   4.28194
 Alpha virt. eigenvalues --    4.29395   4.46251   4.50488   4.51881   4.61333
 Alpha virt. eigenvalues --    4.68100   4.72137   4.80424   4.81690   4.93997
 Alpha virt. eigenvalues --    4.99118   5.06026   5.07145   5.07846   5.08180
 Alpha virt. eigenvalues --    5.08354   5.08959   5.11226   5.12875   5.13920
 Alpha virt. eigenvalues --    5.15029   5.15680   5.17372   5.17484   5.17935
 Alpha virt. eigenvalues --    5.18474   5.19856   5.22735   5.24398   5.27098
 Alpha virt. eigenvalues --    5.33508   5.38374   5.38768   5.39603   5.40204
 Alpha virt. eigenvalues --    5.44181   5.46189   5.47281   5.50945   5.57306
 Alpha virt. eigenvalues --    5.58868   5.59975   5.65650   5.84959   5.86423
 Alpha virt. eigenvalues --   23.52910  23.55162  23.56416  23.63470  23.65711
 Alpha virt. eigenvalues --   23.68623  23.69447  23.71725  23.73058  23.73899
 Alpha virt. eigenvalues --   23.75274  23.78475  23.84646  23.85944  23.88392
 Alpha virt. eigenvalues --   23.90965  23.98146  24.07715  24.11562  35.48444
 Alpha virt. eigenvalues --   35.51426  35.54747  35.55416  35.64525  35.69799
 Alpha virt. eigenvalues --   35.70608  35.74673  49.86861  49.89216  49.89421
 Alpha virt. eigenvalues --   49.91516  49.93045  49.94689  49.96126  50.00100
 Alpha virt. eigenvalues --   50.03038  50.06789
          Condensed to atoms (all electrons):
 Mulliken charges:
               1
     1  C    0.287494
     2  N   -0.103213
     3  C   -0.237715
     4  C   -1.016109
     5  N    0.458658
     6  C   -0.162850
     7  C   -0.769176
     8  C   -0.435673
     9  C   -0.146958
    10  O    0.066302
    11  C   -0.682174
    12  O   -0.241404
    13  O   -0.214815
    14  O   -0.181008
    15  N   -0.349248
    16  C    0.394789
    17  N   -0.639958
    18  C    0.064980
    19  O   -0.388255
    20  N   -0.617473
    21  H    0.283072
    22  H    0.303598
    23  H    0.320850
    24  H    0.342209
    25  H    0.264648
    26  H    0.289542
    27  H    0.243902
    28  H    0.327331
    29  H    0.334323
    30  H    0.426492
    31  H    0.821837
    32  H    0.386827
    33  H    0.623697
    34  C   -0.626011
    35  C    0.307632
    36  N    0.454501
    37  C   -0.295253
    38  O   -0.386337
    39  N   -0.358934
    40  C   -0.055710
    41  N   -0.739717
    42  C   -1.015310
    43  C   -0.208725
    44  C   -0.427601
    45  C   -0.076491
    46  O    0.122372
    47  C   -0.621775
    48  O   -0.279177
    49  O   -0.169716
    50  O   -0.273204
    51  H    0.303657
    52  H    0.307941
    53  H    0.592155
    54  H    0.410135
    55  H    0.377135
    56  H    0.364288
    57  H    0.332896
    58  H    0.270496
    59  H    0.289796
    60  H    0.350684
    61  H    0.336546
    62  H    0.317049
    63  H    0.342155
 Sum of Mulliken charges =   0.00000
 Mulliken charges with hydrogens summed into heavy atoms:
               1
     1  C    0.570566
     2  N   -0.103213
     3  C   -0.237715
     4  C   -1.016109
     5  N    0.458658
     6  C    0.140748
     7  C   -0.448326
     8  C   -0.093464
     9  C    0.117690
    10  O    0.066302
    11  C   -0.148730
    12  O    0.085927
    13  O    0.119509
    14  O    0.245485
    15  N   -0.349248
    16  C    0.394789
    17  N    0.181879
    18  C    0.064980
    19  O   -0.388255
    20  N    0.393051
    34  C   -0.322354
    35  C    0.615573
    36  N    0.454501
    37  C   -0.295253
    38  O   -0.386337
    39  N   -0.358934
    40  C   -0.055710
    41  N    0.262574
    42  C   -0.638175
    43  C    0.155563
    44  C   -0.094705
    45  C    0.194005
    46  O    0.122372
    47  C    0.018706
    48  O    0.057370
    49  O    0.147332
    50  O    0.068951
 APT charges:
               1
     1  C    0.258757
     2  N   -0.404705
     3  C   -0.365747
     4  C    0.666131
     5  N   -0.618607
     6  C    0.801898
     7  C    0.378682
     8  C    0.400138
     9  C    0.294015
    10  O   -0.737591
    11  C    0.494533
    12  O   -0.581551
    13  O   -0.614694
    14  O   -0.694093
    15  N   -0.982001
    16  C    1.250563
    17  N   -0.810643
    18  C    1.316365
    19  O   -1.117261
    20  N   -0.915109
    21  H    0.060166
    22  H   -0.045171
    23  H   -0.028695
    24  H   -0.013418
    25  H   -0.029161
    26  H   -0.064272
    27  H   -0.012576
    28  H    0.232051
    29  H    0.260161
    30  H    0.413254
    31  H    0.511556
    32  H    0.207480
    33  H    0.494970
    34  C   -0.492531
    35  C    0.412716
    36  N   -0.842399
    37  C    1.301399
    38  O   -0.997419
    39  N   -0.995923
    40  C    1.163543
    41  N   -0.933287
    42  C    0.765704
    43  C    0.345016
    44  C    0.379623
    45  C    0.391406
    46  O   -0.802350
    47  C    0.466487
    48  O   -0.586590
    49  O   -0.571848
    50  O   -0.626002
    51  H    0.041058
    52  H    0.144317
    53  H    0.577465
    54  H    0.224086
    55  H    0.010872
    56  H    0.003084
    57  H   -0.019552
    58  H   -0.075309
    59  H   -0.054282
    60  H   -0.010825
    61  H    0.241795
    62  H    0.256450
    63  H    0.277870
 Sum of APT charges =   0.00000
 APT charges with hydrogens summed into heavy atoms:
               1
     1  C    0.318923
     2  N   -0.404705
     3  C   -0.365747
     4  C    0.666131
     5  N   -0.618607
     6  C    0.756728
     7  C    0.349987
     8  C    0.386720
     9  C    0.264855
    10  O   -0.737591
    11  C    0.417685
    12  O   -0.349499
    13  O   -0.354532
    14  O   -0.280839
    15  N   -0.982001
    16  C    1.250563
    17  N   -0.299087
    18  C    1.316365
    19  O   -1.117261
    20  N   -0.212658
    34  C   -0.451473
    35  C    0.557033
    36  N   -0.842399
    37  C    1.301399
    38  O   -0.997419
    39  N   -0.995923
    40  C    1.163543
    41  N   -0.131737
    42  C    0.776576
    43  C    0.348101
    44  C    0.360071
    45  C    0.316097
    46  O   -0.802350
    47  C    0.401380
    48  O   -0.344795
    49  O   -0.315398
    50  O   -0.348132
 Electronic spatial extent (au):  <R**2>=          28219.9756
 Charge=              0.0000 electrons
 Dipole moment (field-independent basis, Debye):
    X=              9.9784    Y=             -1.0161    Z=             -0.1258  Tot=             10.0308
 Quadrupole moment (field-independent basis, Debye-Ang):
   XX=           -181.4476   YY=           -219.6380   ZZ=           -236.0662
   XY=              2.5071   XZ=             16.8549   YZ=              3.1407
 Traceless Quadrupole moment (field-independent basis, Debye-Ang):
   XX=             30.9363   YY=             -7.2541   ZZ=            -23.6822
   XY=              2.5071   XZ=             16.8549   YZ=              3.1407
 Octapole moment (field-independent basis, Debye-Ang**2):
  XXX=            228.9466  YYY=            -33.3355  ZZZ=              2.5660  XYY=            187.1562
  XXY=             25.1462  XXZ=            127.7788  XZZ=             99.7306  YZZ=             16.1232
  YYZ=             16.5266  XYZ=             -9.0111
 Hexadecapole moment (field-independent basis, Debye-Ang**3):
 XXXX=         -26685.7250 YYYY=          -6376.7420 ZZZZ=          -1652.8618 XXXY=          -1507.7668
 XXXZ=            969.3739 YYYX=            400.7304 YYYZ=             75.2374 ZZZX=            141.6067
 ZZZY=             -2.2183 XXYY=          -5869.1972 XXZZ=          -5507.3604 YYZZ=          -1393.5600
 XXYZ=           -347.0436 YYXZ=            298.7234 ZZXY=           -128.9373
 N-N= 4.194881569514D+03 E-N=-1.290849465364D+04  KE= 1.923746945875D+03
  Exact polarizability:     405.099      -6.320     352.863       3.767      22.047     225.156
 Approx polarizability:     527.519     -12.609     532.118       6.222      56.114     348.488
 No NMR shielding tensors so no spin-rotation constants.
 Leave Link  601 at Thu Jul 13 01:52:37 2023, MaxMem=  8053063680 cpu:               2.9 elap:               2.9
 (Enter /opt/gaussian/g16/l701.exe)
 SCFChk:  SCF convergence  5.23D-09 required  1.00D-08
 ... and contract with generalized density number  0.
 Compute integral second derivatives.
 R6Disp: Adding Grimme-D3(BJ) dispersion energy 2nd derivatives to the Hessian.
 Entering OneElI...
 Calculate overlap and kinetic energy integrals
    NBasis = 955  MinDer = 2  MaxDer = 2
 Requested accuracy = 0.1000D-12
 PrmmSu-InSpLW:  IPartL=    0 NPrtUS=    1 NPrtUL=    1 DoSpLW=F IThBeg=    0 IThEnd=    0 NThAct=    1.
 PrSmSu:  IncTry=   512 NBBP=          42969 NTPThr=   100 NPartT=    1 Incr=         429 LDynOK=F GPUOK=F.
 PrsmSu:  NPrtUS=   1 ThrOK=F IAlg=2 LenDen=           0 ISkipM=0 DoSpLW=F IThBeg=    0 IThEnd=    0.
 Prism:   IPart=     0 DynPar=F LinDyn=F Incr=         429.
 PRISM was handed  8046740820 working-precision words and 42969 shell-pairs
 IPart=  0 NShTot=       42969 NBatch=        1007 AvBLen=        42.7
 PrSmSu:  NxtVal=            430.
 Entering OneElI...
 Calculate potential energy integrals
    NBasis = 955  MinDer = 2  MaxDer = 2
 Requested accuracy = 0.1000D-12
 PrmmSu-InSpLW:  IPartL=    0 NPrtUS=    1 NPrtUL=    1 DoSpLW=F IThBeg=    0 IThEnd=    0 NThAct=    1.
 PrSmSu:  IncTry=   512 NBBP=        2139165 NTPThr=   100 NPartT=    1 Incr=         512 LDynOK=F GPUOK=F.
 PrsmSu:  NPrtUS=   1 ThrOK=F IAlg=2 LenDen=           0 ISkipM=0 DoSpLW=F IThBeg=    0 IThEnd=    0.
 Prism:   IPart=     0 DynPar=F LinDyn=F Incr=         512.
 PRISM was handed  8048175006 working-precision words and 33955 shell-pairs
 IPart=  0 NShTot=     2139165 NBatch=       33955 AvBLen=        63.0
 PrSmSu:  NxtVal=            513.
 Polarizability after L701:
                1             2             3 
      1  0.405099D+03
      2 -0.631999D+01  0.352863D+03
      3  0.376700D+01  0.220474D+02  0.225156D+03
 Dipole Derivatives after L701:
                 1             2             3             4             5 
      1  -0.314381D-01  0.262263D+00  0.963330D-01 -0.354365D+00 -0.157970D+00
      2   0.127174D-01  0.781837D+00  0.215223D+00 -0.101987D+00 -0.598404D+00
      3   0.885241D-02  0.162524D+00  0.258713D-01  0.765054D-03 -0.627526D-01
                 6             7             8             9            10 
      1  -0.351655D-01 -0.702832D+00 -0.380424D+00 -0.116822D+00  0.102977D+01
      2  -0.858632D-01 -0.641976D+00 -0.330595D+00 -0.944964D-01 -0.315538D-02
      3  -0.261345D+00 -0.162760D+00 -0.661763D-01 -0.638152D-01 -0.177685D-01
                11            12            13            14            15 
      1   0.324977D-01  0.538873D-01 -0.875087D+00 -0.406099D+00 -0.226505D+00
      2   0.772306D+00  0.182855D+00 -0.305732D+00 -0.778822D+00 -0.184908D+00
      3   0.168288D+00  0.196317D+00 -0.188522D-01 -0.592560D-01 -0.201913D+00
                16            17            18            19            20 
      1   0.798006D+00  0.641216D+00  0.153375D-03  0.583032D+00  0.177862D-01
      2   0.404989D+00  0.111027D+01 -0.372507D+00  0.140812D+00  0.194250D+00
      3   0.127530D+00 -0.181183D+00  0.497419D+00 -0.283602D+00 -0.537024D-01
                21            22            23            24            25 
      1  -0.599885D-01  0.762987D+00  0.130611D+00 -0.132766D+00  0.169215D+00
      2   0.660222D-02  0.268862D+00  0.224846D+00 -0.873442D-01 -0.175459D+00
      3   0.358764D+00 -0.760036D-02  0.116545D+00  0.212582D+00  0.512971D-01
                26            27            28            29            30 
      1  -0.448584D-02 -0.482952D-01 -0.438795D+00 -0.274001D+00  0.135062D+00
      2   0.619603D+00  0.138082D+00  0.415944D-01 -0.117367D+01  0.295689D+00
      3   0.268869D-01  0.932283D-01 -0.805326D-01  0.884733D-01 -0.600311D+00
                31            32            33            34            35 
      1   0.372210D+00  0.256620D-01  0.155445D+00 -0.343942D+00 -0.443297D-01
      2  -0.394566D-01  0.380030D+00 -0.192701D-01  0.431606D-01 -0.577408D+00
      3   0.276769D+00  0.181834D-01  0.731358D+00 -0.371740D+00  0.459981D-01
                36            37            38            39            40 
      1  -0.225336D+00 -0.979328D+00 -0.190935D+00  0.134497D-01 -0.941955D+00
      2   0.121954D+00 -0.298471D+00 -0.463416D+00  0.178338D+00 -0.281089D+00
      3  -0.823301D+00 -0.655523D-01  0.162650D+00 -0.401337D+00  0.202353D+00
                41            42            43            44            45 
      1  -0.204845D+00  0.252465D-01 -0.177503D+01 -0.143030D+00 -0.168592D+00
      2  -0.556947D+00 -0.413829D-01  0.370385D+00 -0.803354D+00 -0.164989D+00
      3  -0.379228D-01 -0.583378D+00  0.365863D-01 -0.134299D+00 -0.367622D+00
                46            47            48            49            50 
      1   0.225598D+01 -0.411173D+00 -0.459540D-01 -0.109750D+01 -0.127482D+00
      2  -0.415960D+00  0.117086D+01  0.187868D+00 -0.215385D-01 -0.104987D+01
      3  -0.582322D-01  0.198142D+00  0.324844D+00 -0.200125D-01 -0.199040D+00
                51            52            53            54            55 
      1  -0.517305D-01  0.187599D+01  0.838120D+00  0.274120D+00 -0.160226D+01
      2  -0.202897D+00  0.631363D+00  0.170949D+01  0.379374D+00 -0.627739D+00
      3  -0.284564D+00  0.179400D+00  0.364607D+00  0.363618D+00 -0.173794D+00
                56            57            58            59            60 
      1  -0.963343D+00 -0.296679D+00 -0.141914D+01  0.780211D+00  0.124559D+00
      2  -0.131199D+01 -0.257094D+00  0.464523D+00 -0.819914D+00  0.459748D-01
      3  -0.244630D+00 -0.437534D+00  0.973102D-01 -0.337733D-01 -0.506272D+00
                61            62            63            64            65 
      1  -0.377645D-01 -0.133988D-01 -0.101780D-01 -0.973303D-01  0.592017D-01
      2   0.830320D-02  0.848239D-01 -0.181972D-01  0.427858D-01 -0.576757D-01
      3  -0.125192D-02 -0.149278D-01  0.133438D+00 -0.191454D-01  0.129102D-01
                66            67            68            69            70 
      1   0.181416D-01 -0.898547D-01  0.260966D-01 -0.670507D-01 -0.132508D-01
      2   0.120483D-01  0.357647D-02  0.225571D-01  0.185703D-01  0.228825D-01
      3   0.194939D-01 -0.635575D-01  0.434450D-01 -0.187865D-01  0.361890D-01
                71            72            73            74            75 
      1   0.550229D-02  0.423871D-01 -0.111866D+00  0.375883D-01 -0.291655D-01
      2  -0.417645D-01 -0.515343D-01  0.713681D-01  0.104058D-01 -0.438860D-01
      3  -0.708612D-01  0.147608D-01 -0.948616D-02  0.994990D-02  0.139772D-01
                76            77            78            79            80 
      1   0.313662D-01 -0.613661D-02 -0.104607D-01 -0.112113D+00  0.293196D-01
      2   0.746371D-01 -0.144782D+00 -0.761372D-01 -0.229689D-01  0.543556D-01
      3   0.895780D-02 -0.843859D-01 -0.794007D-01  0.115458D-01 -0.800853D-02
                81            82            83            84            85 
      1   0.267193D-01  0.948797D-01 -0.141373D-01  0.111433D+00  0.358469D+00
      2   0.311472D-01 -0.494372D-01  0.362000D+00 -0.525084D-01  0.336913D-01
      3   0.200304D-01  0.813223D-01 -0.583008D-01  0.239275D+00  0.320553D-01
                86            87            88            89            90 
      1   0.647591D-01  0.550149D-01  0.564111D+00  0.204337D+00  0.276591D+00
      2   0.218858D+00 -0.106737D+00  0.214471D+00  0.354204D+00  0.186531D+00
      3  -0.132892D+00  0.203157D+00  0.150917D+00  0.978065D-01  0.321448D+00
                91            92            93            94            95 
      1   0.122779D+01  0.145167D+00  0.355172D-01  0.127871D+00 -0.486446D-01
      2   0.126226D+00  0.936666D-01 -0.315588D-01 -0.269533D-01  0.225519D+00
      3   0.474430D-01 -0.322583D-01  0.213215D+00 -0.180192D-01 -0.261660D-01
                96            97            98            99           100 
      1  -0.543719D-02  0.105958D+01  0.156593D+00  0.548217D-01 -0.906226D+00
      2  -0.639057D-01  0.105797D+00  0.169734D+00 -0.606019D-01  0.517164D+00
      3   0.269051D+00  0.437702D-01 -0.259285D-01  0.255594D+00  0.120305D+00
               101           102           103           104           105 
      1   0.299213D+00  0.565316D-01  0.523531D-02 -0.576698D+00 -0.207842D+00
      2  -0.354973D+00 -0.157223D-01  0.165993D+00  0.112412D+01  0.355153D+00
      3  -0.185876D-01 -0.216395D+00  0.356592D-01  0.283741D+00  0.108796D+00
               106           107           108           109           110 
      1  -0.107272D+01  0.618716D+00  0.287235D+00  0.176025D+01  0.311785D+00
      2  -0.192814D+00 -0.120425D+01 -0.397234D+00 -0.713746D-02  0.170074D+01
      3  -0.133618D+00 -0.216444D+00 -0.250227D+00  0.881712D-01  0.458238D+00
               111           112           113           114           115 
      1   0.182204D+00 -0.127207D+01 -0.470164D+00 -0.145347D+00 -0.111220D+01
      2   0.440038D+00 -0.321881D+00 -0.125521D+01 -0.310234D+00  0.106360D+00
      3   0.443197D+00 -0.147221D+00 -0.298000D+00 -0.464969D+00  0.836138D-02
               116           117           118           119           120 
      1   0.206972D-01  0.311633D-02  0.160579D+01 -0.347822D+00 -0.858087D-01
      2  -0.146860D+01 -0.370639D+00 -0.615437D+00  0.149904D+01  0.383667D+00
      3  -0.353018D+00 -0.406966D+00 -0.136492D+00  0.366562D+00  0.385798D+00
               121           122           123           124           125 
      1  -0.127029D+01  0.497443D+00  0.139525D+00  0.660872D+00 -0.906223D+00
      2   0.645267D+00 -0.974707D+00 -0.152239D+00 -0.525041D+00  0.107341D+01
      3   0.174993D+00 -0.115099D+00 -0.554865D+00 -0.433110D-01 -0.122981D+00
               126           127           128           129           130 
      1   0.375131D-01  0.453304D+00  0.278453D+00  0.589135D-01  0.186405D+00
      2  -0.305561D+00  0.156960D+00  0.267322D+00  0.293117D+00  0.215545D+00
      3   0.562828D+00  0.971212D-01  0.521145D-01  0.314424D+00  0.141919D+00
               131           132           133           134           135 
      1  -0.745103D-01  0.712657D-02  0.499364D+00 -0.311361D+00 -0.331340D-01
      2   0.386555D+00  0.187949D+00 -0.404750D+00  0.579684D+00  0.839558D-01
      3   0.246341D+00  0.565908D+00  0.128443D+00  0.321871D-01  0.951691D-01
               136           137           138           139           140 
      1  -0.752868D+00  0.509349D+00 -0.101818D+00  0.242723D+00  0.368555D-01
      2   0.463682D+00 -0.109539D+01  0.250951D+00  0.136585D-01  0.450309D+00
      3   0.373284D-01  0.155174D+00 -0.558787D+00 -0.164436D+00 -0.233000D+00
               141           142           143           144           145 
      1  -0.133246D+00 -0.213788D+00 -0.526395D-01  0.165013D+00 -0.226368D+00
      2  -0.302707D+00 -0.142358D+00 -0.718577D+00  0.283742D+00 -0.156930D+00
      3   0.706430D+00  0.167860D+00  0.174326D+00 -0.827404D+00 -0.138777D+00
               146           147           148           149           150 
      1  -0.148908D-01  0.232339D-01 -0.879606D+00  0.675272D-02 -0.109723D+00
      2  -0.702331D+00 -0.194772D+00 -0.419141D-01 -0.647968D+00 -0.273216D+00
      3  -0.147611D+00 -0.786844D+00 -0.550342D-01 -0.189381D+00 -0.350433D+00
               151           152           153           154           155 
      1   0.985329D-02 -0.388794D-01 -0.108462D-01  0.150110D+00 -0.888768D-01
      2  -0.267604D-01 -0.304123D-01 -0.578545D-01 -0.850004D-01  0.164823D+00
      3  -0.127333D-01 -0.572743D-01  0.143733D+00 -0.351288D-01  0.956454D-02
               156           157           158           159           160 
      1  -0.332783D-01  0.128215D+01  0.189013D+00  0.957316D-01  0.107384D+00
      2   0.352079D-02  0.111804D+00  0.173970D+00 -0.218492D-01 -0.394757D-01
      3   0.118018D+00  0.520307D-01 -0.316068D-01  0.276274D+00 -0.183007D-01
               161           162           163           164           165 
      1  -0.551244D-01 -0.216468D-01  0.131644D+00  0.254730D-01 -0.238148D-01
      2   0.256789D+00 -0.116267D-01 -0.751783D-01 -0.597987D-01  0.179702D-01
      3  -0.219865D-01  0.308085D+00 -0.606554D-01 -0.655381D-01 -0.392302D-01
               166           167           168           169           170 
      1   0.572669D-01 -0.327321D-01 -0.226857D-01 -0.977994D-01  0.438791D-01
      2  -0.253448D-01  0.135106D-01  0.299585D-01  0.155739D-01  0.157417D-01
      3  -0.113577D-01  0.539821D-01 -0.615242D-01 -0.275936D-02 -0.209541D-01
               171           172           173           174           175 
      1  -0.674633D-02 -0.106684D+00  0.285750D-01 -0.107718D+00 -0.398718D-01
      2  -0.935204D-02  0.656482D-01 -0.390416D-01  0.189556D-01  0.784985D-01
      3   0.234028D-01 -0.880460D-01  0.241580D-02 -0.802014D-01  0.976993D-01
               176           177           178           179           180 
      1   0.916637D-01  0.478328D-01 -0.407419D-01  0.279649D-02 -0.670322D-01
      2  -0.892297D-01 -0.394864D-02  0.110636D-02  0.479333D-01  0.484885D-01
      3  -0.298652D-01 -0.337456D-01 -0.852659D-01  0.355598D-01 -0.396667D-01
               181           182           183           184           185 
      1   0.701086D-01 -0.175182D-01 -0.159342D-01  0.761362D-01  0.129333D-01
      2   0.517381D-01  0.397984D+00 -0.507361D-02  0.249592D-01  0.351607D+00
      3  -0.842317D-01 -0.188436D-01  0.257291D+00  0.860922D-02 -0.145983D-01
               186           187           188           189 
      1   0.281646D-01  0.405229D+00 -0.526528D-01  0.257260D-01
[...]
 0001482,-0.00000485,0.00001756,-0.00000399,0.00000424,-0.00002862,0.00
 000805,-0.00001933,-0.00001655,0.00000514,-0.00003504,-0.00002372,-0.0
 0000955,-0.00009756,-0.00003439,-0.00001680,0.00011940,0.00003553,0.00
 001858,-0.00009761,-0.00004156,-0.00001866,0.00012727,0.00006662,0.000
 02495,-0.00013215,-0.00007128,-0.00002906,-0.00008556,-0.00000112,0.00
 000691,-0.00000257,-0.00000041,-0.00000048,-0.00000300,-0.00000225,0.0
 0000108,-0.00000332,-0.00000065,-0.00000004,0.,-0.00000178,-0.00000193
 ,0.00000206,0.00000491,-0.00000221,0.00000132,-0.00000623,-0.00000349,
 -0.00000119,-0.00000022,0.00000157,-0.00000156,0.00002360,-0.00000269,
 0.00000519,0.00000652,-0.00000264,0.00003119,0.00002270,0.00002329,0.0
 0014089,0.00001560,0.00001526,-0.00000522,0.00001806,-0.00000189,0.000
 13055,0.00003877,0.00000130,-0.00020531,0.00009216,-0.00000135,-0.0000
 6521,-0.00030019,-0.00007739,-0.00020822,0.00035882,0.00001119,0.00041
 540,0.00009040,0.00008378,-0.00023974,-0.00010965,-0.00005923,-0.00015
 869,0.00006394,-0.00000849,0.00028411,-0.00012875,-0.00002413,-0.00020
 414,0.00013663,0.00002463,0.00031522,-0.00067344,0.00056438,0.00013297
 ,0.00002681,-0.00032010,-0.00068866,0.00055773,0.00078040,0.00336606,0
 .00030850,0.00154421,-0.00096838,-0.00004678,-0.00064265,0.00940562,-0
 .00406074,0.00432503,0.08062321,-0.02857966,0.07131828,-0.00022932,-0.
 00048367,-0.00076239,-0.00001703,0.00012637,-0.00000316,-0.00000669,0.
 00000332,0.00001209,0.00002063,-0.00005284,-0.00001499,0.00013045,0.00
 001751,0.00001838,0.00000321,-0.00002610,0.00000039,0.00001823,0.00005
 776,-0.00015664,-0.00001474,0.00010711,-0.00005438,0.00001209,-0.00000
 982,-0.00000185,-0.00140589,-0.00070955,-0.00031537,-0.00135129,0.0010
 5925,-0.00104561,-0.00102095,0.00061709,0.00030549,-0.08805384,0.03161
 777,0.00000694,-0.00000480,-0.00000162,0.00000841,-0.00000023,-0.00000
 337,0.00000835,0.00000514,0.00000103,-0.00002476,0.00000937,0.00000505
 ,0.00001645,0.00000607,0.00000137,-0.00001032,-0.00001807,0.00000919,-
 0.00001384,-0.00000147,0.00000404,-0.00000763,0.00000165,0.00000540,-0
 .00000368,-0.00000278,0.00000053,0.00000312,0.00000998,-0.00001355,0.0
 0000948,0.00000109,0.00002076,-0.00001214,0.00000307,-0.00002379,0.000
 00884,0.00000515,-0.00000611,0.00001985,0.00000259,-0.00000478,0.00006
 160,-0.00000314,-0.00000223,-0.00008111,0.00003907,0.00000530,0.000038
 58,-0.00001138,-0.00001253,-0.00003462,0.00000698,0.00000848,0.0000361
 0,0.00000467,-0.00000741,0.00006632,-0.00003813,-0.00001746,0.00000107
 ,0.00000003,0.00000145,0.00000129,0.00000038,-0.00000054,0.00000131,0.
 00000068,-0.00000022,-0.00000010,-0.00000096,-0.00000064,0.00000069,-0
 .00000089,0.00000157,-0.00000074,-0.00000207,-0.00000248,0.00000034,-0
 .00000037,-0.00000137,0.00000300,-0.00000303,0.00001214,-0.00000155,-0
 .00000285,0.00000256,-0.00001174,-0.00000286,-0.00000291,-0.00005380,-
 0.00000690,0.00000923,-0.00000776,0.00000522,-0.00000031,-0.00005903,-
 0.00000771,0.00001574,0.00010300,-0.00007097,-0.00002488,0.00004485,0.
 00020899,0.00008010,0.00015032,-0.00024100,-0.00001552,-0.00018403,0.0
 0007883,0.00002298,0.00009116,-0.00005226,0.00000022,0.00008966,-0.000
 10687,-0.00004799,-0.00012030,0.00010587,0.00003457,0.00010173,-0.0000
 8482,-0.00003902,-0.00024978,0.00022637,-0.00039049,-0.00002312,0.0001
 2075,0.00038193,0.00025055,-0.00065686,-0.00035548,-0.00064030,0.00041
 771,0.00165598,0.00022919,-0.00100490,0.00008395,-0.03603659,0.0095273
 0,-0.02623440,-0.17375968,0.06560170,-0.17168239,0.00019511,0.00005186
 ,0.00024372,-0.00004038,-0.00017604,-0.00010296,0.00000365,-0.00000985
 ,0.00000236,-0.00002069,0.00003174,0.00002516,-0.00004703,-0.00000840,
 0.00000458,0.00000078,0.00000850,0.00001217,0.00001031,0.00003347,0.00
 006196,0.00001128,-0.00011578,0.00000654,0.00002805,0.00004815,-0.0000
 1081,0.00069309,0.00095938,0.00033417,-0.00021291,-0.00128521,0.001738
 96,0.00364216,0.00192681,-0.00625242,0.20570985,-0.07554473,0.20026817
 ,0.00000268,-0.00000399,-0.00000150,0.00001102,-0.00000771,-0.00000239
 ,-0.00001341,-0.00000849,-0.00000349,-0.00002632,0.00003329,0.00000986
 ,0.00000688,-0.00000036,0.00000152,-0.00000639,-0.00000271,0.00000038,
 -0.00001280,-0.00000019,0.00000394,-0.00001001,0.00000050,0.00000268,-
 0.00000736,0.00000356,0.00000308,0.00000615,-0.00000243,-0.00000493,0.
 00000044,0.00000086,0.00000569,-0.00000102,-0.00000014,-0.00000653,0.0
 0001231,0.00000256,-0.00000198,0.00002015,-0.00000285,-0.00000352,0.00
 007721,-0.00003002,-0.00000832,-0.00011048,0.00012291,0.00002848,0.000
 00555,-0.00006369,-0.00002130,0.00000696,0.00006554,0.00002029,-0.0000
 2820,-0.00004436,-0.00001243,0.00008933,-0.00009558,-0.00004476,0.0000
 0056,0.00000010,0.00000023,0.00000147,-0.00000091,-0.00000052,0.000002
 00,-0.00000005,0.00000026,-0.00000066,-0.00000136,-0.00000125,0.000002
 53,-0.00000018,0.00000100,-0.00000085,-0.00000168,-0.00000056,0.000001
 46,-0.00000042,-0.00000088,-0.00000069,0.00000070,0.00000379,-0.000002
 95,-0.00000091,0.00000027,-0.00001217,0.00000183,-0.00000100,0.0000175
 1,0.00001537,0.00000324,-0.00003069,0.00001116,0.00001628,-0.00003190,
 0.00004004,0.00003222,-0.00011250,-0.00002441,-0.00001267,0.00005363,0
 .00000364,-0.00007454,-0.00033788,-0.00032645,-0.00014899,0.00039320,0
 .00058258,0.00028124,-0.00018130,-0.00050954,-0.00026907,-0.00005537,-
 0.00025280,-0.00010857,0.00013249,0.00010630,0.00003541,-0.00003503,-0
 .00003120,-0.00001518,0.00132072,0.00043156,0.00103043,0.00034413,0.00
 003612,0.00036713,-0.01310733,0.00255701,0.00214039,0.00153107,0.00077
 441,0.00036150,-0.00047196,0.00007417,-0.00034107,0.00021060,0.0001052
 8,0.00005346,-0.00015974,-0.00006300,0.00021764,-0.49470496,0.00831278
 ,-0.05784032,0.00015630,0.00073927,0.00059705,0.00000094,-0.00000703,0
 .00001375,0.00003790,-0.00005935,-0.00002641,0.00002160,0.00000922,0.0
 0000549,0.00000557,-0.00000094,0.00000056,-0.00020391,0.00061630,0.000
 39802,0.00004099,-0.00050521,0.00007718,0.00202849,-0.00189410,-0.0024
 8126,-0.00009997,-0.00007516,0.00048850,-0.00024739,0.00016148,-0.0001
 6935,0.00013276,-0.00048181,0.00088432,-0.00001207,0.00007708,-0.00000
 931,0.50330722,-0.00002256,0.00002627,0.00000770,-0.00001519,-0.000025
 46,-0.00000396,-0.00008010,-0.00005163,-0.00001429,0.00005554,0.000051
 53,0.00001175,-0.00006648,-0.00004032,-0.00001563,0.00004887,0.0000814
 1,-0.00002095,0.00001757,0.00000864,0.00000222,0.00000845,0.00001317,-
 0.00000268,-0.00000899,0.00003375,0.00001107,-0.00000303,-0.00007173,0
 .00001964,-0.00000953,0.00002147,-0.00000770,0.00000845,-0.00003019,0.
 00001182,-0.00001457,-0.00002029,0.00000575,-0.00003713,-0.00003795,-0
 .00001422,-0.00010150,-0.00006749,-0.00002376,0.00010353,0.00012763,0.
 00002603,-0.00015445,-0.00010722,-0.00001577,0.00018641,0.00012649,0.0
 0003157,-0.00021363,-0.00012589,-0.00003127,-0.00010022,-0.00009119,0.
 00003196,-0.00000333,-0.00000048,-0.00000132,-0.00000323,-0.00000409,0
 .00000103,-0.00000322,-0.00000104,0.00000047,-0.00000071,-0.00000362,-
 0.00000353,0.00000565,0.00000773,-0.00000339,0.00000078,-0.00000921,-0
 .00000233,0.00000052,-0.00000126,0.00000202,-0.00000591,0.00002579,-0.
 00000488,0.00000421,0.00000759,-0.00000370,0.00003674,0.00003603,0.000
 03052,0.00025374,0.00004102,-0.00000405,-0.00004291,0.00005341,-0.0000
 1137,0.00026106,0.00011574,-0.00001176,-0.00027870,0.00028830,0.000084
 87,-0.00043242,-0.00059969,-0.00012059,0.00023778,0.00090674,0.0010735
 0,0.00087236,-0.00003112,-0.00013272,-0.00069011,-0.00015358,0.0001960
 3,-0.00034573,0.00022239,0.00005854,0.00048183,-0.00027545,-0.00011534
 ,-0.00036563,0.00025874,0.00010566,-0.00172754,-0.00113866,-0.00400160
 ,-0.00282970,0.00011786,-0.00128855,-0.02708672,-0.00172549,-0.0024832
 7,0.00020460,0.00240865,0.00043644,0.00118375,-0.00174979,0.00164970,0
 .00101282,0.00018868,0.00139616,-0.00033001,-0.00026748,-0.00113119,0.
 03827938,-0.01837205,-0.01787968,0.00105457,-0.00037658,0.00085112,-0.
 00003234,0.00004899,-0.00001182,0.00003551,-0.00005349,-0.00003855,0.0
 0021953,0.00003436,0.00000585,0.00000149,-0.00003563,-0.00002283,0.002
 49153,0.00056414,0.00005685,-0.00015810,-0.00103707,0.00044587,-0.0007
 2591,-0.00164934,-0.00321852,-0.00011494,-0.00030276,0.00003450,0.0004
 7555,-0.00042754,0.00033422,-0.00116631,0.00033357,0.00047056,0.000066
 72,0.00007523,-0.00009006,-0.01039755,0.02233078,-0.00001111,0.0000098
 4,0.00000390,-0.00000692,-0.00000659,-0.00000807,-0.00003277,-0.000019
 46,-0.00000883,0.00002504,0.00001513,0.00001158,-0.00002616,-0.0000097
 6,-0.00001261,0.00002347,0.00001619,0.00001268,-0.00001921,-0.00000175
 ,0.00001597,0.00000290,0.00000766,0.00000942,0.00000698,0.00000364,0.0
 0000332,-0.00001057,-0.00000946,-0.00001516,0.00001528,0.00000244,0.00
 002680,-0.00001916,-0.00000030,-0.00002911,-0.00000691,0.00000153,-0.0
 0001333,0.00000988,-0.00001121,-0.00003691,-0.00006547,-0.00001983,-0.
 00002996,0.00007332,0.00001543,0.00003259,-0.00007268,-0.00002576,-0.0
 0003570,0.00008141,0.00004211,0.00003013,-0.00009811,-0.00004457,-0.00
 003632,-0.00007634,0.00002695,-0.00011209,-0.00000168,-0.00000097,0.00
 000211,-0.00000242,-0.00000056,-0.00000121,-0.00000224,0.00000139,-0.0
 0000065,0.,-0.00000440,0.00000076,-0.00000135,0.00000208,0.00000214,0.
 00000105,-0.00000350,-0.00000236,-0.00000265,0.00000016,-0.00000083,0.
 00000853,-0.00000198,0.00001162,0.00000485,-0.00000226,0.00000470,0.00
 001584,0.00001569,0.00003546,0.00012319,0.00001081,0.00002560,-0.00001
 330,-0.00000809,0.00006311,0.00014660,0.00000676,0.00010607,-0.0001471
 5,0.00022481,0.00002498,-0.00032641,-0.00037054,-0.00002922,0.00034616
 ,0.00103898,0.00029530,0.00051767,-0.00015782,0.00007518,-0.00039896,0
 .00012336,-0.00025996,-0.00018098,0.00017273,0.00001537,0.00026684,-0.
 00017169,0.00000610,-0.00019794,0.00016611,0.00001824,-0.00122373,-0.0
 0226885,-0.00044627,0.00017393,-0.00061642,0.00137496,-0.03620687,0.00
 161477,-0.00489983,-0.00109670,-0.00029155,-0.00078699,-0.00039064,0.0
 0104116,-0.00035184,-0.00074550,0.00049334,-0.00222253,0.00046209,-0.0
 0030935,0.00137833,-0.01824815,-0.02179611,-0.03175405,0.00056347,0.00
 021084,-0.00026058,-0.00002327,0.00002945,0.00000942,-0.00000696,-0.00
 002515,0.00003536,0.00010999,0.00001140,0.00002662,-0.00000181,-0.0000
 2428,0.00000646,0.00131534,-0.00021132,0.00073208,0.00036497,0.0004075
 7,-0.00009099,-0.00118724,-0.00379991,-0.00360792,0.00041952,0.0002971
 1,0.00039810,-0.00000308,0.00015807,-0.00012637,0.00162092,0.00086637,
 -0.00035132,-0.00012051,-0.00000516,0.00012223,0.05455771,0.02323119,0
 .04056087,0.00003298,-0.00002108,-0.00000716,0.00002876,0.00001032,0.0
 0000332,0.00007904,0.00005160,0.00001462,-0.00010446,-0.00001214,-0.00
 000133,0.00008823,0.00003342,0.00002065,-0.00006390,-0.00007712,0.0000
 0947,-0.00002991,-0.00000475,-0.00000295,-0.00003210,-0.00001129,0.000
 00450,-0.00001061,-0.00001827,-0.00000317,0.00002245,0.00005175,-0.000
 01785,-0.00000306,-0.00001250,0.00000413,0.00000424,0.00001979,-0.0000
 0639,0.00004369,0.00001860,-0.00000186,0.00006244,0.00002652,0.0000215
 7,0.00022118,0.00003794,0.00003074,-0.00026406,-0.00000545,-0.00001937
 ,0.00022166,0.00005073,-0.00000151,-0.00022711,-0.00006983,-0.00002629
 ,0.00025467,0.00009757,0.00004116,0.00020417,-0.00004557,-0.00000179,0
 .00000522,0.00000223,0.00000066,0.00000739,0.00000104,-0.00000114,0.00
 000758,0.00000009,0.00000127,-0.00000004,0.00000255,-0.00000069,0.0000
 0245,-0.00000696,0.00000256,-0.00000282,0.00000430,0.00000107,0.000004
 82,-0.00000045,-0.00000241,-0.00000244,-0.00001443,0.00000320,-0.00001
 373,-0.00000637,0.00000063,-0.00005743,-0.00003091,-0.00004303,-0.0003
 1396,-0.00003472,-0.00002290,0.00000710,-0.00001237,-0.00000807,-0.000
 28129,-0.00006854,-0.00001785,0.00102758,-0.00000831,0.00001860,-0.000
 95306,0.00041287,0.00041686,0.00010753,-0.00067684,0.00013001,-0.00105
 837,-0.00024474,-0.00016175,0.00062988,0.00034692,0.00017266,0.0004748
 8,-0.00010740,0.00002035,-0.00085349,0.00018752,-0.00006997,0.00061003
 ,-0.00034190,-0.00007854,-0.00231739,0.00132297,-0.00417963,-0.0026636
 3,0.00830545,-0.03027802,0.00160520,-0.00039277,0.00036268,0.00256272,
 -0.00441788,-0.00052248,0.00178022,0.00364131,0.00237975,-0.00036539,0
 .00035510,0.00016063,-0.00009605,0.00005924,0.00002768,-0.00062740,-0.
 00007481,0.00020178,-0.02189946,-0.02478956,0.00689070,0.00002720,-0.0
 0005722,0.00002919,-0.00065477,0.00200447,-0.00048115,-0.00028867,-0.0
 0005711,-0.00002494,-0.00000669,0.00007556,0.00001949,0.00048757,0.000
 04615,0.00053985,-0.00268540,-0.00322682,-0.00175000,-0.00043260,0.000
 56085,0.00068775,-0.00024735,0.00022768,-0.00048447,0.00001785,0.00030
 861,-0.00004812,-0.00005417,-0.00010782,-0.00005656,0.00001857,-0.0000
 2203,0.00002047,0.00004348,-0.00004057,-0.00028198,0.02592005,-0.00001
 472,0.00001341,0.00000288,-0.00000404,-0.00001906,-0.00000521,-0.00006
 824,-0.00004662,-0.00001244,0.00002640,0.00005431,0.00001399,-0.000043
 70,-0.00002665,-0.00001073,0.00003073,0.00005000,-0.00000980,0.0000070
 5,0.00000476,0.00000477,0.00000680,0.00000682,-0.00000262,-0.00000603,
 0.00002089,0.00000737,-0.00000258,-0.00004316,0.00001027,-0.00000483,0
 .00001068,-0.00000537,0.00000484,-0.00001775,0.00000724,-0.00000969,-0
 .00001129,0.00000245,-0.00001800,-0.00002070,-0.00001235,-0.00003017,-
 0.00006499,-0.00002383,0.00002102,0.00014832,0.00002699,-0.00011178,-0
 .00011070,-0.00001853,0.00014373,0.00015761,0.00004667,-0.00019501,-0.
 00013463,-0.00004703,0.00000044,-0.00008121,0.00000731,-0.00000215,-0.
 00000051,0.00000021,-0.00000187,-0.00000236,0.00000030,-0.00000203,-0.
 00000072,-0.00000007,-0.00000063,-0.00000283,-0.00000167,0.00000293,0.
 00000391,-0.00000207,0.00000059,-0.00000491,-0.00000129,0.00000023,-0.
 00000039,0.00000144,-0.00000399,0.00001511,-0.00000325,0.00000292,0.00
 000461,-0.00000164,0.00002054,0.00002075,0.00002022,0.00018077,0.00003
 807,0.00000763,-0.00002073,0.00002270,-0.00000860,0.00008547,0.0000568
 9,0.00000354,-0.00099541,-0.00029936,-0.00029412,0.00166832,0.00093514
 ,-0.00031022,-0.00033279,-0.00077644,0.00001154,0.00036343,0.00078061,
 0.00028537,-0.00032013,-0.00077397,-0.00021103,-0.00023563,-0.00056905
 ,-0.00022441,0.00073996,0.00037716,0.00028131,-0.00039416,-0.00000178,
 -0.00004050,-0.00167266,0.00246276,-0.00091354,-0.00196151,0.00557647,
 -0.02872163,-0.00106491,0.00019378,-0.00331203,-0.00167177,-0.00076989
 ,-0.00043617,0.00156035,-0.00090200,0.00118457,0.00038909,-0.00099063,
 0.00060726,0.00024013,0.00040872,-0.00047592,0.00074177,-0.00037507,0.
 00107400,-0.01343874,-0.07296374,0.15568988,0.00004401,-0.00003794,-0.
 00001237,0.00150559,-0.00186368,0.00129871,0.00019753,0.00005828,0.000
 02236,0.00003894,-0.00004868,0.00000721,-0.00003916,-0.00021484,0.0003
 7327,-0.00288468,-0.00192704,-0.00179850,0.00058869,-0.00065488,-0.000
 28711,0.00010439,-0.00111511,0.00100928,-0.00003628,0.00001051,-0.0000
 2563,0.00016005,0.00033606,-0.00000909,-0.00005510,-0.00016869,0.00010
 681,0.00001095,0.00032871,-0.00004648,0.01675542,0.07294422,0.00000497
 ,-0.00000101,-0.00000112,0.00000574,-0.00000226,-0.00000249,0.00000172
 ,0.00000077,0.00000023,-0.00001751,0.00001114,0.00000441,0.00000995,0.
 00000119,0.00000057,-0.00000605,-0.00000791,0.00000386,-0.00000824,-0.
 00000048,0.00000258,-0.00000500,0.00000046,0.00000235,-0.00000288,0.00
 000031,0.00000082,0.00000267,0.00000288,-0.00000619,0.00000278,0.00000
 044,0.00000789,-0.00000350,-0.00000013,-0.00000861,0.00000637,0.000002
 32,-0.00000246,0.00001266,0.00000092,-0.00000226,0.00004647,-0.0000068
 7,-0.00000243,-0.00005659,0.00003207,0.00000854,0.00002894,-0.00001480
 ,-0.00001098,-0.00001672,0.00002120,0.00001102,0.00001855,-0.00000765,
 -0.00001026,0.00005793,-0.00002260,-0.00001323,0.00000072,0.00000024,0
 .00000093,0.00000112,-0.00000002,-0.00000034,0.00000101,0.00000022,0.,
 -0.00000022,-0.00000070,-0.00000052,0.00000075,-0.00000064,0.00000076,
 -0.00000037,-0.00000097,-0.00000113,0.00000055,-0.00000010,-0.00000056
 ,0.00000065,0.00000008,0.00000425,-0.00000158,-0.00000102,0.00000088,-
 0.00000788,-0.00000136,-0.00000213,-0.00004593,-0.00000569,0.00000744,
 -0.00000321,0.00000085,0.00000335,-0.00006011,-0.00001257,0.00000283,0
 .00022037,-0.00008023,-0.00005489,0.00018879,0.00002599,0.00001359,-0.
 00000006,-0.00018974,-0.00026066,-0.00019221,0.00012856,0.00004220,0.0
 0019737,-0.00012241,-0.00003987,0.00010259,-0.00017999,-0.00005270,-0.
 00005413,0.00007958,0.00008171,0.00010448,-0.00009078,-0.00005969,0.00
 054692,0.00137251,0.00169101,-0.00067741,0.00740471,-0.02414627,0.0000
 2933,-0.00039882,0.00031160,-0.00054329,0.00015633,0.00073287,0.000839
 51,-0.00016100,-0.00029923,-0.00008003,-0.00040947,0.00007836,0.000122
 64,0.00009066,-0.00033467,0.00065516,0.00096257,0.00061691,-0.02610584
 ,0.11919236,-0.44617187,0.00001742,-0.00004017,0.00000600,-0.00004124,
 0.00026488,0.00043923,-0.00002908,-0.00000548,0.00000287,0.00000714,0.
 00000502,0.00002233,0.00027736,0.00015550,-0.00058664,-0.00246581,-0.0
 0335499,0.00035727,0.00042893,-0.00064193,-0.00011378,0.00017668,0.000
 52881,0.00017497,0.00000293,-0.00005072,0.00000946,-0.00001916,0.00004
 791,0.00000573,-0.00001160,0.00004501,0.00007409,-0.00003088,0.0001066
 4,0.00005345,0.02636537,-0.12482960,0.46740859\\-0.00000045,-0.0000000
 8,-0.00000115,0.00000026,0.00000052,-0.00000114,-0.00000026,-0.0000005
 5,-0.00000089,-0.00000043,0.00000039,-0.00000072,0.00000073,0.00000010
 ,-0.00000053,0.00000007,0.00000007,-0.00000041,-0.00000053,-0.00000018
 ,-0.00000091,-0.00000023,0.00000013,0.00000024,-0.00000007,0.00000045,
 0.00000016,-0.00000002,0.00000016,-0.00000009,-0.00000077,0.00000023,0
 .00000086,0.00000054,0.00000095,0.00000039,-0.00000007,0.00000020,0.00
 000062,0.00000064,-0.00000054,0.00000029,0.00000038,0.00000006,-0.0000
 0009,-0.00000071,-0.00000063,-0.00000050,0.00000086,0.00000006,-0.0000
 0042,0.00000022,0.00000116,-0.00000069,-0.00000007,-0.00000025,-0.0000
 0124,-0.00000028,-0.00000035,0.00000008,0.00000027,0.00000021,-0.00000
 116,-0.00000015,0.00000015,-0.00000059,0.00000051,-0.00000062,0.000000
 15,0.00000006,-0.00000041,0.00000036,0.,0.00000020,0.00000022,-0.00000
 012,0.00000037,0.00000071,0.00000018,0.00000067,0.00000024,-0.00000074
 ,0.00000074,0.00000062,0.00000017,-0.00000012,-0.00000029,-0.00000025,
 -0.00000039,-0.00000045,-0.00000015,0.00000007,-0.00000050,0.,0.000000
 06,0.00000042,0.00000051,-0.00000003,0.00000013,0.00000051,0.00000025,
 -0.00000055,-0.00000017,-0.00000028,-0.00000044,0.00000006,-0.00000012
 ,-0.00000012,-0.00000016,0.00000032,-0.00000012,-0.00000005,-0.0000006
 4,0.00000006,0.00000011,-0.00000031,-0.00000036,-0.00000027,0.00000025
 ,-0.00000104,-0.00000021,-0.00000036,-0.00000107,-0.00000036,-0.000000
 16,-0.00000009,-0.00000019,-0.00000050,-0.00000025,0.00000025,-0.00000
 050,0.00000056,-0.00000013,-0.00000050,0.00000059,-0.00000004,0.000000
 14,0.00000078,-0.00000032,0.00000033,0.00000091,-0.00000053,0.00000045
 ,0.00000107,0.00000016,-0.00000056,0.00000123,0.00000028,-0.00000021,0
 .00000077,0.,0.00000010,-0.00000097,0.00000021,0.00000008,-0.00000033,
 0.00000003,0.00000014,-0.00000116,0.00000032,0.00000075,-0.00000114,0.
 00000029,-0.00000011,0.00000061,0.00000009,-0.00000084,0.00000058,-0.0
 0000019,-0.00000040,0.00000084,-0.00000008,0.00000029,0.00000090,0.,-0
 .00000016,0.00000142,0.00000017,-0.00000010,0.00000131,0.00000009,0.00
 000039,0.00000156,0.00000003,-0.00000066,0.00000090,0.,0.00000014,-0.0
 0000017\\\@


 AN OPTIMIST IS A GUY
 THAT HAS NEVER HAD
 MUCH EXPERIENCE
   (CERTAIN MAXIMS OF ARCHY  -- DON MARQUIS)
 Job cpu time:       5 days 21 hours 56 minutes 41.3 seconds.
 Elapsed time:       5 days 21 hours 56 minutes 46.3 seconds.
 File lengths (MBytes):  RWF=   4447 Int=      0 D2E=      0 Chk=    137 Scr=      1
 Normal termination of Gaussian 16 at Thu Jul 13 13:24:45 2023.
l 13 13:23:31 2023.
 13:20:28 2023.
of Gaussian 16 at Thu Jul 13 13:16:36 2023.
 Thu Jul 13 13:11:56 2023.
  RWF=   4447 Int=      0 D2E=      0 Chk=    137 Scr=      1
 Normal termination of Gaussian 16 at Thu Jul 13 11:49:32 2023.
