 Entering Gaussian System, Link 0=g16
 Input=opt.com
 Output=opt.log
 Initial command:
 /opt/gaussian/g16/l1.exe "/mnt/scratch/hwang/Gau-857913.inp" -scrdir="/mnt/scratch/hwang/"
 Entering Link 1 = /opt/gaussian/g16/l1.exe PID=    857915.
  
 Copyright (c) 1988-2019, Gaussian, Inc.  All Rights Reserved.
  
 This is part of the Gaussian(R) 16 program.  It is based on
 the Gaussian(R) 09 system (copyright 2009, Gaussian, Inc.),
 the Gaussian(R) 03 system (copyright 2003, Gaussian, Inc.),
 the Gaussian(R) 98 system (copyright 1998, Gaussian, Inc.),
 the Gaussian(R) 94 system (copyright 1995, Gaussian, Inc.),
 the Gaussian 92(TM) system (copyright 1992, Gaussian, Inc.),
 the Gaussian 90(TM) system (copyright 1990, Gaussian, Inc.),
 the Gaussian 88(TM) system (copyright 1988, Gaussian, Inc.),
 the Gaussian 86(TM) system (copyright 1986, Carnegie Mellon
 University), and the Gaussian 82(TM) system (copyright 1983,
 Carnegie Mellon University). Gaussian is a federally registered
 trademark of Gaussian, Inc.
  
 This software contains proprietary and confidential information,
 including trade secrets, belonging to Gaussian, Inc.
  
 This software is provided under written license and may be
 used, copied, transmitted, or stored only in accord with that
 written license.
  
 The following legend is applicable only to US Government
 contracts under FAR:
  
                    RESTRICTED RIGHTS LEGEND
  
 Use, reproduction and disclosure by the US Government is
 subject to restrictions as set forth in subparagraphs (a)
 and (c) of the Commercial Computer Software - Restricted
 Rights clause in FAR 52.227-19.
  
 Gaussian, Inc.
 340 Quinnipiac St., Bldg. 40, Wallingford CT 06492
  
  
 ---------------------------------------------------------------
 Warning -- This program may not be used in any manner that
 competes with the business of Gaussian, Inc. or will provide
 assistance to any competitor of Gaussian, Inc.  The licensee
 of this program is prohibited from giving any competitor of
 Gaussian, Inc. access to this program.  By using this program,
 the user acknowledges that Gaussian, Inc. is engaged in the
 business of creating and licensing software in the field of
 computational chemistry and represents and warrants to the
 licensee that it is not a competitor of Gaussian, Inc. and that
 it will not use this program in any manner prohibited above.
 ---------------------------------------------------------------
  

 Cite this work as:
 Gaussian 16, Revision C.01,
 M. J. Frisch, G. W. Trucks, H. B. Schlegel, G. E. Scuseria, 
 M. A. Robb, J. R. Cheeseman, G. Scalmani, V. Barone, 
 G. A. Petersson, H. Nakatsuji, X. Li, M. Caricato, A. V. Marenich, 
 J. Bloino, B. G. Janesko, R. Gomperts, B. Mennucci, H. P. Hratchian, 
 J. V. Ortiz, A. F. Izmaylov, J. L. Sonnenberg, D. Williams-Young, 
 F. Ding, F. Lipparini, F. Egidi, J. Goings, B. Peng, A. Petrone, 
 T. Henderson, D. Ranasinghe, V. G. Zakrzewski, J. Gao, N. Rega, 
 G. Zheng, W. Liang, M. Hada, M. Ehara, K. Toyota, R. Fukuda, 
 J. Hasegawa, M. Ishida, T. Nakajima, Y. Honda, O. Kitao, H. Nakai, 
 T. Vreven, K. Throssell, J. A. Montgomery, Jr., J. E. Peralta, 
 F. Ogliaro, M. J. Bearpark, J. J. Heyd, E. N. Brothers, K. N. Kudin, 
 V. N. Staroverov, T. A. Keith, R. Kobayashi, J. Normand, 
 K. Raghavachari, A. P. Rendell, J. C. Burant, S. S. Iyengar, 
 J. Tomasi, M. Cossi, J. M. Millam, M. Klene, C. Adamo, R. Cammi, 
 J. W. Ochterski, R. L. Martin, K. Morokuma, O. Farkas, 
 J. B. Foresman, and D. J. Fox, Gaussian, Inc., Wallingford CT, 2019.
 
 ******************************************
 Gaussian 16:  ES64L-G16RevC.01  3-Jul-2019
                29-Jun-2023 
 ******************************************
 %mem=30GB
 ----------------------------------------------------------------------
 #P b3lyp/6-311++G* EmpiricalDispersion=GD3BJ scf(qc) opt(tight,maxcycl
 e=100)
 ----------------------------------------------------------------------
 1/6=100,7=10,18=20,19=15,26=3,38=1/1,3;
 2/9=110,12=2,17=6,18=5,40=1/2;
 3/5=4,6=6,7=1011,11=2,25=1,30=1,71=1,74=-5,124=41/1,2,3;
 4//1;
 5/5=2,8=3,38=5/8;
 6/7=2,8=2,9=2,10=2,28=1/1;
 7//1,2,3,16;
 1/6=100,7=10,18=20,19=15,26=3/3(2);
 2/9=110/2;
 99//99;
 2/9=110/2;
 3/5=4,6=6,7=1011,11=2,25=1,30=1,71=1,74=-5,124=41/1,2,3;
 4/5=5,16=3,69=1/1;
 5/5=2,8=3,38=5/8;
 7//1,2,3,16;
 1/6=100,7=10,18=20,19=15,26=3/3(-5);
 2/9=110/2;
 6/7=2,8=2,9=2,10=2,19=2,28=1/1;
 99/9=1/99;
 Leave Link    1 at Thu Jun 29 14:48:58 2023, MaxMem=  4026531840 cpu:               0.0 elap:               0.0
 (Enter /opt/gaussian/g16/l101.exe)
 ------------------------------
 Gaussian input prepared by ASE
 ------------------------------
 Symbolic Z-matrix:
 Charge =  0 Multiplicity = 1
 C                    -5.16369  -2.52462  -0.2579 
 N                    -4.09035  -3.25576  -0.47185 
 C                    -3.01629  -2.39951  -0.21027 
 C                    -3.47917  -1.13695   0.17321 
 N                    -4.8621   -1.21094   0.15525 
 C                    -5.84754  -0.1462    0.26653 
 C                    -5.78671   0.75212   1.55753 
 C                    -6.00005   2.17416   0.97872 
 C                    -5.28906   2.0948   -0.3766 
 O                    -5.75894   0.77376  -0.87409 
 C                    -5.63401   3.17313  -1.38723 
 O                    -4.99176   2.99289  -2.67323 
 O                    -7.41544   2.47207   0.80985 
 O                    -4.59171   0.64843   2.33529 
 N                    -2.72157  -0.05441   0.51181 
 C                    -1.39515  -0.26227   0.43974 
 N                    -0.86173  -1.47249   0.05275 
 C                    -1.60982  -2.62366  -0.28966 
 O                    -1.00792  -3.6822   -0.61951 
 N                    -0.53754   0.72893   0.75698 
 H                    -6.18386  -2.85272  -0.37275 
 H                    -6.81931  -0.63904   0.19117 
 H                    -6.60848   0.50617   2.23209 
 H                    -5.61269   2.93149   1.65843 
 H                    -4.2014    2.04241  -0.22733 
 H                    -5.37647   4.14837  -0.9449 
 H                    -6.7026    3.17369  -1.59853 
 H                    -4.03381   2.82824  -2.55778 
 H                    -7.77408   1.92763   0.0768 
 H                    -3.77582   0.63383   1.76055 
 H                     0.17315  -1.58333   0.00927 
 H                    -0.92689   1.61307   1.03922 
 H                     0.48051   0.6064    0.72856 
 C                     3.97746  -3.17282  -0.6016 
 C                     4.74952  -2.10152  -0.28319 
 N                     4.18683  -0.90962   0.13271 
 C                     2.75856  -0.79235   0.23252 
 O                     2.26868   0.29785   0.64116 
 N                     1.99634  -1.86709  -0.10178 
 C                     2.5466   -3.03353  -0.51575 
 N                     1.72258  -4.0382   -0.83122 
 C                     4.95394   0.28691   0.38728 
 C                     6.31649   0.22085   1.09033 
 C                     6.78631   1.68331   0.91076 
 C                     6.27359   2.03304  -0.52938 
 O                     5.33453   0.93484  -0.89064 
 C                     5.60681   3.40122  -0.65012 
 O                     5.23838   3.72601  -2.01116 
 O                     6.29507   2.56713   1.95043 
 O                     7.2447   -0.67498   0.41275 
 H                     4.42984  -4.10516  -0.9116 
 H                     5.82871  -2.12896  -0.29615 
 H                     0.69369  -3.92216  -0.75698 
 H                     2.09     -4.92264  -1.1454 
 H                     4.27091   0.94171   0.93544 
 H                     6.28732  -0.09341   2.13172 
 H                     7.8704    1.74878   0.99247 
 H                     7.09336   1.96439  -1.25432 
 H                     6.26787   4.16151  -0.21175 
 H                     4.66443   3.41595  -0.09943 
 H                     6.03702   3.86001  -2.56133 
 H                     5.3199    2.53288   2.03337 
 H                     7.26954  -0.43521  -0.53973 
 
 Add virtual bond connecting atoms O38        and H33        Dist= 3.43D+00.
 Add virtual bond connecting atoms N39        and H31        Dist= 3.49D+00.
 Add virtual bond connecting atoms H53        and O19        Dist= 3.26D+00.
 ITRead=  0  0  0  0  0  0  0  0  0  0  0  0  0  0  0  0  0  0  0  0
 ITRead=  0  0  0  0  0  0  0  0  0  0  0  0  0  0  0  0  0  0  0  0
 ITRead=  0  0  0  0  0  0  0  0  0  0  0  0  0  0  0  0  0  0  0  0
 ITRead=  0  0  0
 MicOpt= -1 -1 -1 -1 -1 -1 -1 -1 -1 -1 -1 -1 -1 -1 -1 -1 -1 -1 -1 -1
 MicOpt= -1 -1 -1 -1 -1 -1 -1 -1 -1 -1 -1 -1 -1 -1 -1 -1 -1 -1 -1 -1
 MicOpt= -1 -1 -1 -1 -1 -1 -1 -1 -1 -1 -1 -1 -1 -1 -1 -1 -1 -1 -1 -1
 MicOpt= -1 -1 -1
 NAtoms=     63 NQM=       63 NQMF=       0 NMMI=      0 NMMIF=      0
                NMic=       0 NMicF=      0.
                    Isotopes and Nuclear Properties:
 (Nuclear quadrupole moments (NQMom) in fm**2, nuclear magnetic moments (NMagM)
  in nuclear magnetons)

  Atom         1           2           3           4           5           6           7           8           9          10
 IAtWgt=          12          14          12          12          14          12          12          12          12          16
 AtmWgt=  12.0000000  14.0030740  12.0000000  12.0000000  14.0030740  12.0000000  12.0000000  12.0000000  12.0000000  15.9949146
 NucSpn=           0           2           0           0           2           0           0           0           0           0
 AtZEff=  -0.0000000  -0.0000000  -0.0000000  -0.0000000  -0.0000000  -0.0000000  -0.0000000  -0.0000000  -0.0000000  -0.0000000
 NQMom=    0.0000000   2.0440000   0.0000000   0.0000000   2.0440000   0.0000000   0.0000000   0.0000000   0.0000000   0.0000000
 NMagM=    0.0000000   0.4037610   0.0000000   0.0000000   0.4037610   0.0000000   0.0000000   0.0000000   0.0000000   0.0000000
 AtZNuc=   6.0000000   7.0000000   6.0000000   6.0000000   7.0000000   6.0000000   6.0000000   6.0000000   6.0000000   8.0000000

  Atom        11          12          13          14          15          16          17          18          19          20
 IAtWgt=          12          16          16          16          14          12          14          12          16          14
 AtmWgt=  12.0000000  15.9949146  15.9949146  15.9949146  14.0030740  12.0000000  14.0030740  12.0000000  15.9949146  14.0030740
 NucSpn=           0           0           0           0           2           0           2           0           0           2
 AtZEff=  -0.0000000  -0.0000000  -0.0000000  -0.0000000  -0.0000000  -0.0000000  -0.0000000  -0.0000000  -0.0000000  -0.0000000
 NQMom=    0.0000000   0.0000000   0.0000000   0.0000000   2.0440000   0.0000000   2.0440000   0.0000000   0.0000000   2.0440000
 NMagM=    0.0000000   0.0000000   0.0000000   0.0000000   0.4037610   0.0000000   0.4037610   0.0000000   0.0000000   0.4037610
 AtZNuc=   6.0000000   8.0000000   8.0000000   8.0000000   7.0000000   6.0000000   7.0000000   6.0000000   8.0000000   7.0000000

  Atom        21          22          23          24          25          26          27          28          29          30
 IAtWgt=           1           1           1           1           1           1           1           1           1           1
 AtmWgt=   1.0078250   1.0078250   1.0078250   1.0078250   1.0078250   1.0078250   1.0078250   1.0078250   1.0078250   1.0078250
 NucSpn=           1           1           1           1           1           1           1           1           1           1
 AtZEff=  -0.0000000  -0.0000000  -0.0000000  -0.0000000  -0.0000000  -0.0000000  -0.0000000  -0.0000000  -0.0000000  -0.0000000
 NQMom=    0.0000000   0.0000000   0.0000000   0.0000000   0.0000000   0.0000000   0.0000000   0.0000000   0.0000000   0.0000000
 NMagM=    2.7928460   2.7928460   2.7928460   2.7928460   2.7928460   2.7928460   2.7928460   2.7928460   2.7928460   2.7928460
 AtZNuc=   1.0000000   1.0000000   1.0000000   1.0000000   1.0000000   1.0000000   1.0000000   1.0000000   1.0000000   1.0000000

  Atom        31          32          33          34          35          36          37          38          39          40
 IAtWgt=           1           1           1          12          12          14          12          16          14          12
 AtmWgt=   1.0078250   1.0078250   1.0078250  12.0000000  12.0000000  14.0030740  12.0000000  15.9949146  14.0030740  12.0000000
 NucSpn=           1           1           1           0           0           2           0           0           2           0
 AtZEff=  -0.0000000  -0.0000000  -0.0000000  -0.0000000  -0.0000000  -0.0000000  -0.0000000  -0.0000000  -0.0000000  -0.0000000
 NQMom=    0.0000000   0.0000000   0.0000000   0.0000000   0.0000000   2.0440000   0.0000000   0.0000000   2.0440000   0.0000000
 NMagM=    2.7928460   2.7928460   2.7928460   0.0000000   0.0000000   0.4037610   0.0000000   0.0000000   0.4037610   0.0000000
 AtZNuc=   1.0000000   1.0000000   1.0000000   6.0000000   6.0000000   7.0000000   6.0000000   8.0000000   7.0000000   6.0000000

  Atom        41          42          43          44          45          46          47          48          49          50
 IAtWgt=          14          12          12          12          12          16          12          16          16          16
 AtmWgt=  14.0030740  12.0000000  12.0000000  12.0000000  12.0000000  15.9949146  12.0000000  15.9949146  15.9949146  15.9949146
 NucSpn=           2           0           0           0           0           0           0           0           0           0
 AtZEff=  -0.0000000  -0.0000000  -0.0000000  -0.0000000  -0.0000000  -0.0000000  -0.0000000  -0.0000000  -0.0000000  -0.0000000
 NQMom=    2.0440000   0.0000000   0.0000000   0.0000000   0.0000000   0.0000000   0.0000000   0.0000000   0.0000000   0.0000000
 NMagM=    0.4037610   0.0000000   0.0000000   0.0000000   0.0000000   0.0000000   0.0000000   0.0000000   0.0000000   0.0000000
 AtZNuc=   7.0000000   6.0000000   6.0000000   6.0000000   6.0000000   8.0000000   6.0000000   8.0000000   8.0000000   8.0000000

  Atom        51          52          53          54          55          56          57          58          59          60
 IAtWgt=           1           1           1           1           1           1           1           1           1           1
 AtmWgt=   1.0078250   1.0078250   1.0078250   1.0078250   1.0078250   1.0078250   1.0078250   1.0078250   1.0078250   1.0078250
 NucSpn=           1           1           1           1           1           1           1           1           1           1
 AtZEff=  -0.0000000  -0.0000000  -0.0000000  -0.0000000  -0.0000000  -0.0000000  -0.0000000  -0.0000000  -0.0000000  -0.0000000
 NQMom=    0.0000000   0.0000000   0.0000000   0.0000000   0.0000000   0.0000000   0.0000000   0.0000000   0.0000000   0.0000000
 NMagM=    2.7928460   2.7928460   2.7928460   2.7928460   2.7928460   2.7928460   2.7928460   2.7928460   2.7928460   2.7928460
 AtZNuc=   1.0000000   1.0000000   1.0000000   1.0000000   1.0000000   1.0000000   1.0000000   1.0000000   1.0000000   1.0000000

  Atom        61          62          63
 IAtWgt=           1           1           1
 AtmWgt=   1.0078250   1.0078250   1.0078250
 NucSpn=           1           1           1
 AtZEff=  -0.0000000  -0.0000000  -0.0000000
 NQMom=    0.0000000   0.0000000   0.0000000
 NMagM=    2.7928460   2.7928460   2.7928460
 AtZNuc=   1.0000000   1.0000000   1.0000000
 Leave Link  101 at Thu Jun 29 14:48:59 2023, MaxMem=  4026531840 cpu:               0.6 elap:               0.6
 (Enter /opt/gaussian/g16/l103.exe)

 GradGradGradGradGradGradGradGradGradGradGradGradGradGradGradGradGradGrad
 Berny optimization.
 Initialization pass.
                           ----------------------------
                           !    Initial Parameters    !
                           ! (Angstroms and Degrees)  !
 --------------------------                            --------------------------
 ! Name  Definition              Value          Derivative Info.                !
 --------------------------------------------------------------------------------
 ! R1    R(1,2)                  1.3162         estimate D2E/DX2                !
 ! R2    R(1,5)                  1.4098         estimate D2E/DX2                !
 ! R3    R(1,21)                 1.0778         estimate D2E/DX2                !
 ! R4    R(2,3)                  1.3983         estimate D2E/DX2                !
 ! R5    R(3,4)                  1.3983         estimate D2E/DX2                !
 ! R6    R(3,18)                 1.4264         estimate D2E/DX2                !
 ! R7    R(4,5)                  1.385          estimate D2E/DX2                !
 ! R8    R(4,15)                 1.364          estimate D2E/DX2                !
 ! R9    R(5,6)                  1.455          estimate D2E/DX2                !
 ! R10   R(6,7)                  1.574          estimate D2E/DX2                !
 ! R11   R(6,10)                 1.4681         estimate D2E/DX2                !
 ! R12   R(6,22)                 1.0922         estimate D2E/DX2                !
 ! R13   R(7,8)                  1.5501         estimate D2E/DX2                !
 ! R14   R(7,14)                 1.4296         estimate D2E/DX2                !
 ! R15   R(7,23)                 1.0913         estimate D2E/DX2                !
 ! R16   R(8,9)                  1.5325         estimate D2E/DX2                !
 ! R17   R(8,13)                 1.4562         estimate D2E/DX2                !
 ! R18   R(8,24)                 1.0889         estimate D2E/DX2                !
 ! R19   R(9,10)                 1.4878         estimate D2E/DX2                !
 ! R20   R(9,11)                 1.5176         estimate D2E/DX2                !
 ! R21   R(9,25)                 1.0991         estimate D2E/DX2                !
 ! R22   R(11,12)                1.4487         estimate D2E/DX2                !
 ! R23   R(11,26)                1.1014         estimate D2E/DX2                !
 ! R24   R(11,27)                1.0893         estimate D2E/DX2                !
 ! R25   R(12,28)                0.9788         estimate D2E/DX2                !
 ! R26   R(13,29)                0.981          estimate D2E/DX2                !
 ! R27   R(14,30)                0.9981         estimate D2E/DX2                !
 ! R28   R(15,16)                1.3445         estimate D2E/DX2                !
 ! R29   R(16,17)                1.378          estimate D2E/DX2                !
 ! R30   R(16,20)                1.3486         estimate D2E/DX2                !
 ! R31   R(17,18)                1.4149         estimate D2E/DX2                !
 ! R32   R(17,31)                1.0417         estimate D2E/DX2                !
 ! R33   R(18,19)                1.2616         estimate D2E/DX2                !
 ! R34   R(19,53)                1.7239         estimate D2E/DX2                !
 ! R35   R(20,32)                1.0065         estimate D2E/DX2                !
 ! R36   R(20,33)                1.0258         estimate D2E/DX2                !
 ! R37   R(31,39)                1.8485         estimate D2E/DX2                !
 ! R38   R(33,38)                1.8167         estimate D2E/DX2                !
 ! R39   R(34,35)                1.3584         estimate D2E/DX2                !
 ! R40   R(34,40)                1.4402         estimate D2E/DX2                !
 ! R41   R(34,51)                1.0817         estimate D2E/DX2                !
 ! R42   R(35,36)                1.3821         estimate D2E/DX2                !
 ! R43   R(35,52)                1.0796         estimate D2E/DX2                !
 ! R44   R(36,37)                1.4365         estimate D2E/DX2                !
 ! R45   R(36,42)                1.4439         estimate D2E/DX2                !
 ! R46   R(37,38)                1.2631         estimate D2E/DX2                !
 ! R47   R(37,39)                1.3593         estimate D2E/DX2                !
 ! R48   R(39,40)                1.3545         estimate D2E/DX2                !
 ! R49   R(40,41)                1.3371         estimate D2E/DX2                !
 ! R50   R(41,53)                1.0381         estimate D2E/DX2                !
 ! R51   R(41,54)                1.0079         estimate D2E/DX2                !
 ! R52   R(42,43)                1.5347         estimate D2E/DX2                !
 ! R53   R(42,46)                1.4825         estimate D2E/DX2                !
 ! R54   R(42,55)                1.0935         estimate D2E/DX2                !
 ! R55   R(43,44)                1.5465         estimate D2E/DX2                !
 ! R56   R(43,50)                1.4571         estimate D2E/DX2                !
 ! R57   R(43,56)                1.0882         estimate D2E/DX2                !
 ! R58   R(44,45)                1.5682         estimate D2E/DX2                !
 ! R59   R(44,49)                1.4503         estimate D2E/DX2                !
 ! R60   R(44,57)                1.0891         estimate D2E/DX2                !
 ! R61   R(45,46)                1.4894         estimate D2E/DX2                !
 ! R62   R(45,47)                1.5268         estimate D2E/DX2                !
 ! R63   R(45,58)                1.0965         estimate D2E/DX2                !
 ! R64   R(47,48)                1.447          estimate D2E/DX2                !
 ! R65   R(47,59)                1.0987         estimate D2E/DX2                !
 ! R66   R(47,60)                1.0916         estimate D2E/DX2                !
 ! R67   R(48,61)                0.979          estimate D2E/DX2                !
 ! R68   R(49,62)                0.9793         estimate D2E/DX2                !
 ! R69   R(50,63)                0.9825         estimate D2E/DX2                !
 ! A1    A(2,1,5)              113.0054         estimate D2E/DX2                !
 ! A2    A(2,1,21)             125.8359         estimate D2E/DX2                !
 ! A3    A(5,1,21)             121.1586         estimate D2E/DX2                !
 ! A4    A(1,2,3)              104.8222         estimate D2E/DX2                !
 ! A5    A(2,3,4)              110.4832         estimate D2E/DX2                !
 ! A6    A(2,3,18)             130.5972         estimate D2E/DX2                !
 ! A7    A(4,3,18)             118.9166         estimate D2E/DX2                !
 ! A8    A(3,4,5)              106.1846         estimate D2E/DX2                !
 ! A9    A(3,4,15)             126.9274         estimate D2E/DX2                !
 ! A10   A(5,4,15)             126.8841         estimate D2E/DX2                !
 ! A11   A(1,5,4)              105.4969         estimate D2E/DX2                !
 ! A12   A(1,5,6)              124.0151         estimate D2E/DX2                !
 ! A13   A(4,5,6)              129.506          estimate D2E/DX2                !
 ! A14   A(5,6,7)              117.0131         estimate D2E/DX2                !
 ! A15   A(5,6,10)             110.9933         estimate D2E/DX2                !
 ! A16   A(5,6,22)             105.4928         estimate D2E/DX2                !
 ! A17   A(7,6,10)             106.0985         estimate D2E/DX2                !
 ! A18   A(7,6,22)             110.3967         estimate D2E/DX2                !
 ! A19   A(10,6,22)            106.4308         estimate D2E/DX2                !
 ! A20   A(6,7,8)              102.2396         estimate D2E/DX2                !
 ! A21   A(6,7,14)             115.9226         estimate D2E/DX2                !
 ! A22   A(6,7,23)             110.4436         estimate D2E/DX2                !
 ! A23   A(8,7,14)             112.6277         estimate D2E/DX2                !
 ! A24   A(8,7,23)             109.5082         estimate D2E/DX2                !
 ! A25   A(14,7,23)            106.071          estimate D2E/DX2                !
 ! A26   A(7,8,9)              102.6424         estimate D2E/DX2                !
 ! A27   A(7,8,13)             111.3924         estimate D2E/DX2                !
 ! A28   A(7,8,24)             110.8555         estimate D2E/DX2                !
 ! A29   A(9,8,13)             111.0364         estimate D2E/DX2                !
 ! A30   A(9,8,24)             115.0262         estimate D2E/DX2                !
 ! A31   A(13,8,24)            106.0144         estimate D2E/DX2                !
 ! A32   A(8,9,10)             101.2551         estimate D2E/DX2                !
 ! A33   A(8,9,11)             116.5305         estimate D2E/DX2                !
 ! A34   A(8,9,25)             109.9654         estimate D2E/DX2                !
 ! A35   A(10,9,11)            109.6608         estimate D2E/DX2                !
 ! A36   A(10,9,25)            108.3993         estimate D2E/DX2                !
 ! A37   A(11,9,25)            110.4411         estimate D2E/DX2                !
 ! A38   A(6,10,9)             108.4022         estimate D2E/DX2                !
 ! A39   A(9,11,12)            113.7011         estimate D2E/DX2                !
 ! A40   A(9,11,26)            107.9725         estimate D2E/DX2                !
 ! A41   A(9,11,27)            110.642          estimate D2E/DX2                !
 ! A42   A(12,11,26)           111.2846         estimate D2E/DX2                !
 ! A43   A(12,11,27)           105.2352         estimate D2E/DX2                !
 ! A44   A(26,11,27)           107.8686         estimate D2E/DX2                !
 ! A45   A(11,12,28)           110.4934         estimate D2E/DX2                !
 ! A46   A(8,13,29)            109.1745         estimate D2E/DX2                !
 ! A47   A(7,14,30)            111.7827         estimate D2E/DX2                !
 ! A48   A(4,15,16)            114.3268         estimate D2E/DX2                !
 ! A49   A(15,16,17)           122.1879         estimate D2E/DX2                !
 ! A50   A(15,16,20)           120.0755         estimate D2E/DX2                !
 ! A51   A(17,16,20)           117.7359         estimate D2E/DX2                !
 ! A52   A(16,17,18)           125.2966         estimate D2E/DX2                !
 ! A53   A(16,17,31)           119.3224         estimate D2E/DX2                !
 ! A54   A(18,17,31)           115.3774         estimate D2E/DX2                !
 ! A55   A(3,18,17)            112.3332         estimate D2E/DX2                !
 ! A56   A(3,18,19)            128.0848         estimate D2E/DX2                !
 ! A57   A(17,18,19)           119.5816         estimate D2E/DX2                !
 ! A58   A(18,19,53)           127.4852         estimate D2E/DX2                !
 ! A59   A(16,20,32)           117.7511         estimate D2E/DX2                !
 ! A60   A(16,20,33)           122.4681         estimate D2E/DX2                !
 ! A61   A(32,20,33)           119.7778         estimate D2E/DX2                !
 ! A62   A(35,34,40)           118.323          estimate D2E/DX2                !
 ! A63   A(35,34,51)           120.6148         estimate D2E/DX2                !
 ! A64   A(40,34,51)           121.0622         estimate D2E/DX2                !
 ! A65   A(34,35,36)           121.2832         estimate D2E/DX2                !
 ! A66   A(34,35,52)           123.0445         estimate D2E/DX2                !
 ! A67   A(36,35,52)           115.6263         estimate D2E/DX2                !
 ! A68   A(35,36,37)           119.7416         estimate D2E/DX2                !
 ! A69   A(35,36,42)           123.4617         estimate D2E/DX2                !
 ! A70   A(37,36,42)           116.635          estimate D2E/DX2                !
 ! A71   A(36,37,38)           118.5895         estimate D2E/DX2                !
 ! A72   A(36,37,39)           118.4161         estimate D2E/DX2                !
 ! A73   A(38,37,39)           122.989          estimate D2E/DX2                !
 ! A74   A(33,38,37)           122.949          estimate D2E/DX2                !
 ! A75   A(31,39,37)           114.6402         estimate D2E/DX2                !
 ! A76   A(31,39,40)           123.4514         estimate D2E/DX2                !
 ! A77   A(37,39,40)           121.8853         estimate D2E/DX2                !
 ! A78   A(34,40,39)           120.3388         estimate D2E/DX2                !
 ! A79   A(34,40,41)           121.7041         estimate D2E/DX2                !
 ! A80   A(39,40,41)           117.9563         estimate D2E/DX2                !
 ! A81   A(40,41,53)           120.6598         estimate D2E/DX2                !
 ! A82   A(40,41,54)           120.5447         estimate D2E/DX2                !
 ! A83   A(53,41,54)           118.7955         estimate D2E/DX2                !
 ! A84   A(36,42,43)           121.1164         estimate D2E/DX2                !
 ! A85   A(36,42,46)           110.2782         estimate D2E/DX2                !
 ! A86   A(36,42,55)           104.6397         estimate D2E/DX2                !
 ! A87   A(43,42,46)           100.7067         estimate D2E/DX2                !
 ! A88   A(43,42,55)           110.5307         estimate D2E/DX2                !
 ! A89   A(46,42,55)           109.3151         estimate D2E/DX2                !
 ! A90   A(42,43,44)           100.1264         estimate D2E/DX2                !
 ! A91   A(42,43,50)           112.2728         estimate D2E/DX2                !
 ! A92   A(42,43,56)           115.2806         estimate D2E/DX2                !
 ! A93   A(44,43,50)           109.5035         estimate D2E/DX2                !
 ! A94   A(44,43,56)           113.1016         estimate D2E/DX2                !
 ! A95   A(50,43,56)           106.5315         estimate D2E/DX2                !
 ! A96   A(43,44,45)           102.6034         estimate D2E/DX2                !
 ! A97   A(43,44,49)           112.9632         estimate D2E/DX2                !
 ! A98   A(43,44,57)           110.5184         estimate D2E/DX2                !
 ! A99   A(45,44,49)           114.3107         estimate D2E/DX2                !
 ! A100  A(45,44,57)           112.3915         estimate D2E/DX2                !
 ! A101  A(49,44,57)           104.2842         estimate D2E/DX2                !
 ! A102  A(44,45,46)           105.334          estimate D2E/DX2                !
 ! A103  A(44,45,47)           114.5358         estimate D2E/DX2                !
 ! A104  A(44,45,58)           110.4121         estimate D2E/DX2                !
 ! A105  A(46,45,47)           111.4816         estimate D2E/DX2                !
 ! A106  A(46,45,58)           105.3575         estimate D2E/DX2                !
 ! A107  A(47,45,58)           109.2888         estimate D2E/DX2                !
 ! A108  A(42,46,45)           105.9638         estimate D2E/DX2                !
 ! A109  A(45,47,48)           112.7517         estimate D2E/DX2                !
 ! A110  A(45,47,59)           109.0124         estimate D2E/DX2                !
 ! A111  A(45,47,60)           110.44           estimate D2E/DX2                !
 ! A112  A(48,47,59)           111.9108         estimate D2E/DX2                !
 ! A113  A(48,47,60)           104.5769         estimate D2E/DX2                !
 ! A114  A(59,47,60)           107.9872         estimate D2E/DX2                !
 ! A115  A(47,48,61)           110.5853         estimate D2E/DX2                !
 ! A116  A(44,49,62)           112.1295         estimate D2E/DX2                !
 ! A117  A(43,50,63)           108.4738         estimate D2E/DX2                !
 ! A118  L(17,31,39,19,-1)     177.083          estimate D2E/DX2                !
 ! A119  L(20,33,38,19,-1)     176.8605         estimate D2E/DX2                !
 ! A120  L(19,53,41,31,-1)     178.3443         estimate D2E/DX2                !
 ! A121  L(17,31,39,19,-2)     179.7656         estimate D2E/DX2                !
 ! A122  L(20,33,38,19,-2)     179.7426         estimate D2E/DX2                !
 ! A123  L(19,53,41,31,-2)     180.023          estimate D2E/DX2                !
 ! D1    D(5,1,2,3)             -0.7693         estimate D2E/DX2                !
 ! D2    D(21,1,2,3)           179.2631         estimate D2E/DX2                !
 ! D3    D(2,1,5,4)              0.9388         estimate D2E/DX2                !
 ! D4    D(2,1,5,6)            170.5358         estimate D2E/DX2                !
 ! D5    D(21,1,5,4)          -179.0919         estimate D2E/DX2                !
 ! D6    D(21,1,5,6)            -9.4948         estimate D2E/DX2                !
 ! D7    D(1,2,3,4)              0.312          estimate D2E/DX2                !
 ! D8    D(1,2,3,18)          -179.0426         estimate D2E/DX2                !
 ! D9    D(2,3,4,5)              0.2492         estimate D2E/DX2                !
 ! D10   D(2,3,4,15)           179.571          estimate D2E/DX2                !
 ! D11   D(18,3,4,5)           179.6894         estimate D2E/DX2                !
 ! D12   D(18,3,4,15)           -0.9889         estimate D2E/DX2                !
 ! D13   D(2,3,18,17)          179.4244         estimate D2E/DX2                !
 ! D14   D(2,3,18,19)           -0.3305         estimate D2E/DX2                !
 ! D15   D(4,3,18,17)            0.1152         estimate D2E/DX2                !
 ! D16   D(4,3,18,19)         -179.6398         estimate D2E/DX2                !
 ! D17   D(3,4,5,1)             -0.6721         estimate D2E/DX2                !
 ! D18   D(3,4,5,6)           -169.4866         estimate D2E/DX2                !
 ! D19   D(15,4,5,1)          -179.9942         estimate D2E/DX2                !
 ! D20   D(15,4,5,6)            11.1914         estimate D2E/DX2                !
 ! D21   D(3,4,15,16)            0.874          estimate D2E/DX2                !
 ! D22   D(5,4,15,16)         -179.9405         estimate D2E/DX2                !
 ! D23   D(1,5,6,7)            135.4672         estimate D2E/DX2                !
 ! D24   D(1,5,6,10)          -102.5946         estimate D2E/DX2                !
 ! D25   D(1,5,6,22)            12.2878         estimate D2E/DX2                !
 ! D26   D(4,5,6,7)            -57.5665         estimate D2E/DX2                !
 ! D27   D(4,5,6,10)            64.3717         estimate D2E/DX2                !
 ! D28   D(4,5,6,22)           179.2541         estimate D2E/DX2                !
 ! D29   D(5,6,7,8)            137.283          estimate D2E/DX2                !
 ! D30   D(5,6,7,14)            14.383          estimate D2E/DX2                !
 ! D31   D(5,6,7,23)          -106.259          estimate D2E/DX2                !
 ! D32   D(10,6,7,8)            12.8336         estimate D2E/DX2                !
 ! D33   D(10,6,7,14)         -110.0664         estimate D2E/DX2                !
 ! D34   D(10,6,7,23)          129.2916         estimate D2E/DX2                !
 ! D35   D(22,6,7,8)          -102.0899         estimate D2E/DX2                !
 ! D36   D(22,6,7,14)          135.0101         estimate D2E/DX2                !
 ! D37   D(22,6,7,23)           14.3681         estimate D2E/DX2                !
 ! D38   D(5,6,10,9)          -113.1538         estimate D2E/DX2                !
 ! D39   D(7,6,10,9)            14.95           estimate D2E/DX2                !
 ! D40   D(22,6,10,9)          132.5501         estimate D2E/DX2                !
 ! D41   D(6,7,8,9)            -34.7615         estimate D2E/DX2                !
 ! D42   D(6,7,8,13)            84.118          estimate D2E/DX2                !
 ! D43   D(6,7,8,24)          -158.087          estimate D2E/DX2                !
 ! D44   D(14,7,8,9)            90.3417         estimate D2E/DX2                !
 ! D45   D(14,7,8,13)         -150.7787         estimate D2E/DX2                !
 ! D46   D(14,7,8,24)          -32.9837         estimate D2E/DX2                !
 ! D47   D(23,7,8,9)          -151.8928         estimate D2E/DX2                !
 ! D48   D(23,7,8,13)          -33.0133         estimate D2E/DX2                !
 ! D49   D(23,7,8,24)           84.7817         estimate D2E/DX2                !
 ! D50   D(6,7,14,30)           42.9511         estimate D2E/DX2                !
 ! D51   D(8,7,14,30)          -74.3055         estimate D2E/DX2                !
 ! D52   D(23,7,14,30)         165.92           estimate D2E/DX2                !
 ! D53   D(7,8,9,10)            43.9499         estimate D2E/DX2                !
 ! D54   D(7,8,9,11)           162.8169         estimate D2E/DX2                !
 ! D55   D(7,8,9,25)           -70.5506         estimate D2E/DX2                !
 ! D56   D(13,8,9,10)          -75.179          estimate D2E/DX2                !
 ! D57   D(13,8,9,11)           43.688          estimate D2E/DX2                !
 ! D58   D(13,8,9,25)          170.3205         estimate D2E/DX2                !
 ! D59   D(24,8,9,10)          164.4395         estimate D2E/DX2                !
 ! D60   D(24,8,9,11)          -76.6936         estimate D2E/DX2                !
 ! D61   D(24,8,9,25)           49.9389         estimate D2E/DX2                !
 ! D62   D(7,8,13,29)          -70.083          estimate D2E/DX2                !
 ! D63   D(9,8,13,29)           43.6519         estimate D2E/DX2                !
 ! D64   D(24,8,13,29)         169.2379         estimate D2E/DX2                !
 ! D65   D(8,9,10,6)           -36.8924         estimate D2E/DX2                !
 ! D66   D(11,9,10,6)         -160.5845         estimate D2E/DX2                !
 ! D67   D(25,9,10,6)           78.7722         estimate D2E/DX2                !
 ! D68   D(8,9,11,12)         -176.3783         estimate D2E/DX2                !
 ! D69   D(8,9,11,26)           59.6226         estimate D2E/DX2                !
 ! D70   D(8,9,11,27)          -58.2109         estimate D2E/DX2                !
 ! D71   D(10,9,11,12)         -62.1718         estimate D2E/DX2                !
 ! D72   D(10,9,11,26)         173.8291         estimate D2E/DX2                !
 ! D73   D(10,9,11,27)          55.9955         estimate D2E/DX2                !
 ! D74   D(25,9,11,12)          57.2256         estimate D2E/DX2                !
 ! D75   D(25,9,11,26)         -66.7734         estimate D2E/DX2                !
 ! D76   D(25,9,11,27)         175.393          estimate D2E/DX2                !
 ! D77   D(9,11,12,28)         -49.1296         estimate D2E/DX2                !
 ! D78   D(26,11,12,28)         73.0566         estimate D2E/DX2                !
 ! D79   D(27,11,12,28)       -170.367          estimate D2E/DX2                !
 ! D80   D(4,15,16,17)           0.0859         estimate D2E/DX2                !
 ! D81   D(4,15,16,20)        -179.6254         estimate D2E/DX2                !
 ! D82   D(15,16,17,18)         -0.9457         estimate D2E/DX2                !
 ! D83   D(15,16,17,31)        179.7863         estimate D2E/DX2                !
 ! D84   D(20,16,17,18)        178.7721         estimate D2E/DX2                !
 ! D85   D(20,16,17,31)         -0.496          estimate D2E/DX2                !
 ! D86   D(15,16,20,32)         -0.3054         estimate D2E/DX2                !
 ! D87   D(15,16,20,33)        179.0588         estimate D2E/DX2                !
 ! D88   D(17,16,20,32)        179.9706         estimate D2E/DX2                !
 ! D89   D(17,16,20,33)         -0.6652         estimate D2E/DX2                !
 ! D90   D(16,17,18,3)           0.7901         estimate D2E/DX2                !
 ! D91   D(16,17,18,19)       -179.4317         estimate D2E/DX2                !
 ! D92   D(31,17,18,3)        -179.9162         estimate D2E/DX2                !
 ! D93   D(31,17,18,19)         -0.138          estimate D2E/DX2                !
 ! D94   D(16,17,39,37)          0.1644         estimate D2E/DX2                !
 ! D95   D(16,17,39,40)       -178.0599         estimate D2E/DX2                !
 ! D96   D(18,17,39,37)       -179.3116         estimate D2E/DX2                !
 ! D97   D(18,17,39,40)          2.4641         estimate D2E/DX2                !
 ! D98   D(3,18,19,53)         177.9573         estimate D2E/DX2                !
 ! D99   D(17,18,19,53)         -1.7821         estimate D2E/DX2                !
 ! D100  D(18,19,41,40)          2.7466         estimate D2E/DX2                !
 ! D101  D(18,19,41,54)       -177.2327         estimate D2E/DX2                !
 ! D102  D(16,20,38,37)          3.5519         estimate D2E/DX2                !
 ! D103  D(32,20,38,37)       -176.9148         estimate D2E/DX2                !
 ! D104  D(40,34,35,36)          0.9409         estimate D2E/DX2                !
 ! D105  D(40,34,35,52)        178.3652         estimate D2E/DX2                !
 ! D106  D(51,34,35,36)       -179.0731         estimate D2E/DX2                !
 ! D107  D(51,34,35,52)         -1.6489         estimate D2E/DX2                !
 ! D108  D(35,34,40,39)         -1.2557         estimate D2E/DX2                !
 ! D109  D(35,34,40,41)        179.0518         estimate D2E/DX2                !
 ! D110  D(51,34,40,39)        178.7584         estimate D2E/DX2                !
 ! D111  D(51,34,40,41)         -0.934          estimate D2E/DX2                !
 ! D112  D(34,35,36,37)         -0.0277         estimate D2E/DX2                !
 ! D113  D(34,35,36,42)       -175.245          estimate D2E/DX2                !
 ! D114  D(52,35,36,37)       -177.6332         estimate D2E/DX2                !
 ! D115  D(52,35,36,42)          7.1496         estimate D2E/DX2                !
 ! D116  D(35,36,37,38)        178.5633         estimate D2E/DX2                !
 ! D117  D(35,36,37,39)         -0.6248         estimate D2E/DX2                !
 ! D118  D(42,36,37,38)         -5.8998         estimate D2E/DX2                !
 ! D119  D(42,36,37,39)        174.9121         estimate D2E/DX2                !
 ! D120  D(35,36,42,43)        -40.1801         estimate D2E/DX2                !
 ! D121  D(35,36,42,46)         76.8443         estimate D2E/DX2                !
 ! D122  D(35,36,42,55)       -165.7063         estimate D2E/DX2                !
 ! D123  D(37,36,42,43)        144.4653         estimate D2E/DX2                !
 ! D124  D(37,36,42,46)        -98.5103         estimate D2E/DX2                !
 ! D125  D(37,36,42,55)         18.9391         estimate D2E/DX2                !
 ! D126  D(36,37,38,33)        176.6295         estimate D2E/DX2                !
 ! D127  D(39,37,38,33)         -4.2218         estimate D2E/DX2                !
 ! D128  D(36,37,39,31)       -177.9987         estimate D2E/DX2                !
 ! D129  D(36,37,39,40)          0.3096         estimate D2E/DX2                !
 ! D130  D(38,37,39,31)          2.8512         estimate D2E/DX2                !
 ! D131  D(38,37,39,40)       -178.8405         estimate D2E/DX2                !
 ! D132  D(31,39,40,34)        178.7798         estimate D2E/DX2                !
 ! D133  D(31,39,40,41)         -1.5164         estimate D2E/DX2                !
 ! D134  D(37,39,40,34)          0.6228         estimate D2E/DX2                !
 ! D135  D(37,39,40,41)       -179.6734         estimate D2E/DX2                !
 ! D136  D(34,40,41,53)        179.5644         estimate D2E/DX2                !
 ! D137  D(34,40,41,54)         -0.4173         estimate D2E/DX2                !
 ! D138  D(39,40,41,53)         -0.1352         estimate D2E/DX2                !
 ! D139  D(39,40,41,54)        179.8832         estimate D2E/DX2                !
 ! D140  D(36,42,43,44)        171.5677         estimate D2E/DX2                !
 ! D141  D(36,42,43,50)         55.4867         estimate D2E/DX2                !
 ! D142  D(36,42,43,56)        -66.7548         estimate D2E/DX2                !
 ! D143  D(46,42,43,44)         49.8235         estimate D2E/DX2                !
 ! D144  D(46,42,43,50)        -66.2575         estimate D2E/DX2                !
 ! D145  D(46,42,43,56)        171.501          estimate D2E/DX2                !
 ! D146  D(55,42,43,44)        -65.6606         estimate D2E/DX2                !
 ! D147  D(55,42,43,50)        178.2584         estimate D2E/DX2                !
 ! D148  D(55,42,43,56)         56.017          estimate D2E/DX2                !
 ! D149  D(36,42,46,45)       -172.1489         estimate D2E/DX2                !
 ! D150  D(43,42,46,45)        -43.0587         estimate D2E/DX2                !
 ! D151  D(55,42,46,45)         73.3312         estimate D2E/DX2                !
 ! D152  D(42,43,44,45)        -37.8145         estimate D2E/DX2                !
 ! D153  D(42,43,44,49)         85.7513         estimate D2E/DX2                !
 ! D154  D(42,43,44,57)       -157.8449         estimate D2E/DX2                !
 ! D155  D(50,43,44,45)         80.3307         estimate D2E/DX2                !
 ! D156  D(50,43,44,49)       -156.1034         estimate D2E/DX2                !
 ! D157  D(50,43,44,57)        -39.6996         estimate D2E/DX2                !
 ! D158  D(56,43,44,45)       -161.0318         estimate D2E/DX2                !
 ! D159  D(56,43,44,49)        -37.466          estimate D2E/DX2                !
 ! D160  D(56,43,44,57)         78.9378         estimate D2E/DX2                !
 ! D161  D(42,43,50,63)         51.0073         estimate D2E/DX2                !
 ! D162  D(44,43,50,63)        -59.2738         estimate D2E/DX2                !
 ! D163  D(56,43,50,63)        178.0887         estimate D2E/DX2                !
 ! D164  D(43,44,45,46)         12.6484         estimate D2E/DX2                !
 ! D165  D(43,44,45,47)        135.5081         estimate D2E/DX2                !
 ! D166  D(43,44,45,58)       -100.6212         estimate D2E/DX2                !
 ! D167  D(49,44,45,46)       -110.0131         estimate D2E/DX2                !
 ! D168  D(49,44,45,47)         12.8465         estimate D2E/DX2                !
 ! D169  D(49,44,45,58)        136.7172         estimate D2E/DX2                !
 ! D170  D(57,44,45,46)        131.371          estimate D2E/DX2                !
 ! D171  D(57,44,45,47)       -105.7693         estimate D2E/DX2                !
 ! D172  D(57,44,45,58)         18.1014         estimate D2E/DX2                !
 ! D173  D(43,44,49,62)        -54.7406         estimate D2E/DX2                !
 ! D174  D(45,44,49,62)         62.0961         estimate D2E/DX2                !
 ! D175  D(57,44,49,62)       -174.7869         estimate D2E/DX2                !
 ! D176  D(44,45,46,42)         18.7695         estimate D2E/DX2                !
 ! D177  D(47,45,46,42)       -106.0257         estimate D2E/DX2                !
 ! D178  D(58,45,46,42)        135.5354         estimate D2E/DX2                !
 ! D179  D(44,45,47,48)        175.6833         estimate D2E/DX2                !
 ! D180  D(44,45,47,59)         50.7586         estimate D2E/DX2                !
 ! D181  D(44,45,47,60)        -67.7302         estimate D2E/DX2                !
 ! D182  D(46,45,47,48)        -64.842          estimate D2E/DX2                !
 ! D183  D(46,45,47,59)        170.2333         estimate D2E/DX2                !
 ! D184  D(46,45,47,60)         51.7445         estimate D2E/DX2                !
 ! D185  D(58,45,47,48)         51.2152         estimate D2E/DX2                !
 ! D186  D(58,45,47,59)        -73.7094         estimate D2E/DX2                !
 ! D187  D(58,45,47,60)        167.8017         estimate D2E/DX2                !
 ! D188  D(45,47,48,61)        -67.8746         estimate D2E/DX2                !
 ! D189  D(59,47,48,61)         55.4541         estimate D2E/DX2                !
 ! D190  D(60,47,48,61)        172.1026         estimate D2E/DX2                !
 --------------------------------------------------------------------------------
 Trust Radius=3.00D-01 FncErr=1.00D-07 GrdErr=1.00D-06 EigMax=2.50D+02 EigMin=1.00D-04
 Number of steps in this run=    100 maximum allowed number of steps=    378.
 GradGradGradGradGradGradGradGradGradGradGradGradGradGradGradGradGradGrad

 Leave Link  103 at Thu Jun 29 14:48:59 2023, MaxMem=  4026531840 cpu:               0.0 elap:               0.0
 (Enter /opt/gaussian/g16/l202.exe)
 Stoichiometry    C19H26N8O10
 Framework group  C1[X(C19H26N8O10)]
 Deg. of freedom   183
 Full point group                 C1      NOp   1
 Largest Abelian subgroup         C1      NOp   1
 Largest concise Abelian subgroup C1      NOp   1
                         Standard orientation:                         
 ---------------------------------------------------------------------
 Center     Atomic      Atomic             Coordinates (Angstroms)
 Number     Number       Type             X           Y           Z
 ---------------------------------------------------------------------
      1          6           0       -5.163685    2.524615    0.257901
      2          7           0       -4.090348    3.255757    0.471852
      3          6           0       -3.016289    2.399506    0.210265
      4          6           0       -3.479169    1.136952   -0.173214
      5          7           0       -4.862095    1.210936   -0.155251
      6          6           0       -5.847542    0.146201   -0.266531
      7          6           0       -5.786706   -0.752120   -1.557527
      8          6           0       -6.000049   -2.174162   -0.978716
      9          6           0       -5.289057   -2.094797    0.376604
     10          8           0       -5.758937   -0.773761    0.874090
     11          6           0       -5.634010   -3.173127    1.387231
     12          8           0       -4.991755   -2.992885    2.673228
     13          8           0       -7.415435   -2.472071   -0.809849
     14          8           0       -4.591709   -0.648434   -2.335290
     15          7           0       -2.721570    0.054411   -0.511812
     16          6           0       -1.395154    0.262265   -0.439739
     17          7           0       -0.861729    1.472492   -0.052749
     18          6           0       -1.609824    2.623661    0.289655
     19          8           0       -1.007922    3.682204    0.619514
     20          7           0       -0.537541   -0.728932   -0.756981
     21          1           0       -6.183865    2.852723    0.372749
     22          1           0       -6.819312    0.639036   -0.191172
     23          1           0       -6.608476   -0.506174   -2.232092
     24          1           0       -5.612686   -2.931485   -1.658429
     25          1           0       -4.201397   -2.042411    0.227325
     26          1           0       -5.376465   -4.148375    0.944897
     27          1           0       -6.702604   -3.173693    1.598528
     28          1           0       -4.033812   -2.828244    2.557779
     29          1           0       -7.774077   -1.927634   -0.076795
     30          1           0       -3.775820   -0.633826   -1.760553
     31          1           0        0.173145    1.583331   -0.009273
     32          1           0       -0.926888   -1.613072   -1.039220
     33          1           0        0.480510   -0.606395   -0.728563
     34          6           0        3.977459    3.172818    0.601604
     35          6           0        4.749520    2.101517    0.283187
     36          7           0        4.186828    0.909624   -0.132710
     37          6           0        2.758564    0.792353   -0.232517
     38          8           0        2.268679   -0.297849   -0.641163
     39          7           0        1.996343    1.867086    0.101778
     40          6           0        2.546598    3.033526    0.515747
     41          7           0        1.722582    4.038202    0.831221
     42          6           0        4.953941   -0.286914   -0.387283
     43          6           0        6.316489   -0.220852   -1.090326
     44          6           0        6.786307   -1.683313   -0.910756
     45          6           0        6.273594   -2.033043    0.529375
     46          8           0        5.334529   -0.934835    0.890640
     47          6           0        5.606808   -3.401217    0.650118
     48          8           0        5.238376   -3.726014    2.011163
     49          8           0        6.295067   -2.567126   -1.950426
     50          8           0        7.244698    0.674978   -0.412753
     51          1           0        4.429839    4.105157    0.911599
     52          1           0        5.828709    2.128959    0.296145
     53          1           0        0.693685    3.922157    0.756975
     54          1           0        2.089999    4.922643    1.145402
     55          1           0        4.270907   -0.941708   -0.935439
     56          1           0        6.287321    0.093409   -2.131715
     57          1           0        7.870400   -1.748778   -0.992474
     58          1           0        7.093363   -1.964391    1.254321
     59          1           0        6.267866   -4.161505    0.211747
     60          1           0        4.664427   -3.415945    0.099433
     61          1           0        6.037022   -3.860010    2.561330
     62          1           0        5.319900   -2.532883   -2.033372
     63          1           0        7.269535    0.435212    0.539734
 ---------------------------------------------------------------------
 Rotational constants (GHZ):           0.1647890           0.0409147           0.0353583
 Leave Link  202 at Thu Jun 29 14:48:59 2023, MaxMem=  4026531840 cpu:               0.0 elap:               0.0
 (Enter /opt/gaussian/g16/l301.exe)
 Standard basis: 6-311++G(d) (5D, 7F)
 Ernie: Thresh=  0.10000D-02 Tol=  0.10000D-05 Strict=F.
 There are   955 symmetry adapted cartesian basis functions of A   symmetry.
 There are   918 symmetry adapted basis functions of A   symmetry.
   918 basis functions,  1488 primitive gaussians,   955 cartesian basis functions
   138 alpha electrons      138 beta electrons
       nuclear repulsion energy      4159.2972851293 Hartrees.
 IExCor=  402 DFT=T Ex+Corr=B3LYP ExCW=0 ScaHFX=  0.200000
 ScaDFX=  0.800000  0.720000  1.000000  0.810000 ScalE2=  1.000000  1.000000
 IRadAn=      5 IRanWt=     -1 IRanGd=            0 ICorTp=0 IEmpDi=141
 NAtoms=   63 NActive=   63 NUniq=   63 SFac= 1.00D+00 NAtFMM=   60 NAOKFM=T Big=T
 Integral buffers will be    131072 words long.
 Raffenetti 2 integral format.
 Two-electron integral symmetry is turned on.
 R6Disp:  Grimme-D3(BJ) Dispersion energy=       -0.1340083599 Hartrees.
 Nuclear repulsion after empirical dispersion term =     4159.1632767694 Hartrees.
 Leave Link  301 at Thu Jun 29 14:48:59 2023, MaxMem=  4026531840 cpu:               0.1 elap:               0.1
 (Enter /opt/gaussian/g16/l302.exe)
 NPDir=0 NMtPBC=     1 NCelOv=     1 NCel=       1 NClECP=     1 NCelD=      1
         NCelK=      1 NCelE2=     1 NClLst=     1 CellRange=     0.0.
 One-electron integrals computed using PRISM.
 One-electron integral symmetry used in STVInt
 NBasis=   918 RedAO= T EigKep=  1.54D-06  NBF=   918
 NBsUse=   915 1.00D-06 EigRej=  9.23D-07 NBFU=   915
 Precomputing XC quadrature grid using
 IXCGrd= 4 IRadAn=           5 IRanWt=          -1 IRanGd=           0 AccXCQ= 0.00D+00.
 Generated NRdTot=       0 NPtTot=           0 NUsed=           0 NTot=          32
 NSgBfM=   927   927   927   927   927 MxSgAt=    63 MxSgA2=    63.
 Leave Link  302 at Thu Jun 29 14:49:04 2023, MaxMem=  4026531840 cpu:               4.7 elap:               4.7
 (Enter /opt/gaussian/g16/l303.exe)
 DipDrv:  MaxL=1.
 Leave Link  303 at Thu Jun 29 14:49:04 2023, MaxMem=  4026531840 cpu:               0.1 elap:               0.1
 (Enter /opt/gaussian/g16/l401.exe)
 ExpMin= 3.60D-02 ExpMax= 8.59D+03 ExpMxC= 1.30D+03 IAcc=3 IRadAn=         5 AccDes= 0.00D+00
 Harris functional with IExCor=  402 and IRadAn=       5 diagonalized for initial guess.
 HarFok:  IExCor=  402 AccDes= 0.00D+00 IRadAn=         5 IDoV= 1 UseB2=F ITyADJ=14
 ICtDFT=  3500011 ScaDFX=  1.000000  1.000000  1.000000  1.000000
 FoFCou: FMM=F IPFlag=           0 FMFlag=      100000 FMFlg1=        2001
         NFxFlg=           0 DoJE=T BraDBF=F KetDBF=T FulRan=T
         wScrn=  0.000000 ICntrl=       500 IOpCl=  0 I1Cent=   200000004 NGrid=           0
         NMat0=    1 NMatS0=      1 NMatT0=    0 NMatD0=    1 NMtDS0=    0 NMtDT0=    0
 Petite list used in FoFCou.
 Harris En= -1930.49759186720    
 JPrj=0 DoOrth=F DoCkMO=F.
 Leave Link  401 at Thu Jun 29 14:49:43 2023, MaxMem=  4026531840 cpu:              38.5 elap:              38.5
 (Enter /opt/gaussian/g16/l508.exe)
 Integral symmetry usage will be decided dynamically.
 Tight linear equation convergence will be used.
 RB3LYP wavefunction.
 Quadratic Convergence SCF Method.
 Line search only if initial step raises energy.
 Fock matrices will be formed incrementally for  20 cycles.
 FoFJK:  IHMeth= 1 ICntrl=       0 DoSepK=F KAlg= 0 I1Cent=           0 FoldK=F
 IRaf= 790000000 NMat=       1 IRICut=       1 DoRegI=T DoRafI=F ISym2E= 1 IDoP0=0 IntGTp=1.
 FoFCou: FMM=T IPFlag=           0 FMFlag=      100000 FMFlg1=        2001
         NFxFlg=           0 DoJE=F BraDBF=F KetDBF=F FulRan=T
         wScrn=  0.000000 ICntrl=         0 IOpCl=  0 I1Cent=           0 NGrid=           0
         NMat0=    1 NMatS0=      1 NMatT0=    0 NMatD0=    1 NMtDS0=    0 NMtDT0=    0
 Petite list used in FoFCou.
 FMM levels:  10  Number of levels for PrismC:   9
 Iteration   1 EE= -1929.71083168342                                    Grad=1.578D+00 Max rot=    3.8387 deg.
 Gradient too large for Newton-Raphson -- use scaled steepest descent instead.
 Alpha Gap=     0.113 HL deriv= 8.32D-03
     ILin= 1 X=0.000D+00 Y=-1.929710831683D+03 DE= 0.00D+00 F= -4.60D+00
 RMSU=  6.38D-03    CP:  1.17D+00
     ILin= 2 X=3.000D-01 Y=-1.930477770802D+03 DE=-7.67D-01 F= -4.81D-01 OKLS=F
 RMSU=  3.55D-04    CP:  1.25D+00  1.39D+00
     ILin= 3 X=4.000D-01 Y=-1.930455613140D+03 DE=-7.45D-01 F=  9.25D-01
     An  expanding polynomial of degree  3 produced  0.3340
 RMSU=  3.35D-07    CP:  1.20D+00  1.13D+00  2.84D-01
 Iteration   2 EE= -1930.48601353951     Delta-E=       -0.775181856088 Grad=4.728D-01 Max rot=    1.0240 deg.
 Gradient too large for Newton-Raphson -- use scaled steepest descent instead.
 Alpha Gap=     0.152 HL deriv= 5.60D-03
     ILin= 1 X=0.000D+00 Y=-1.930486013540D+03 DE= 0.00D+00 F= -2.95D-01
 RMSU=  1.41D-03    CP:  1.22D+00  1.32D+00  9.03D-01 -3.00D+00
     ILin= 2 X=3.000D-01 Y=-1.930542601145D+03 DE=-5.66D-02 F= -8.27D-02 OKLS=F
 RMSU=  4.76D-05    CP:  1.23D+00  1.46D+00  1.41D+00 -3.00D+00  1.68D+00
     ILin= 3 X=5.000D-01 Y=-1.930545116425D+03 DE=-5.91D-02 F=  5.73D-02
     Accept linear search using points  2 and  3.
     An  expanding polynomial of degree  3 produced  0.3963
 RMSU=  7.08D-08    CP:  1.23D+00  1.39D+00  1.14D+00 -3.00D+00  1.33D+00
                    CP:  3.82D-01
 Iteration   3 EE= -1930.54730866712     Delta-E=       -0.061295127607 Grad=2.300D-01 Max rot=    0.6703 deg.
 Gradient too large for Newton-Raphson -- use scaled steepest descent instead.
 Alpha Gap=     0.148 HL deriv= 3.34D-03
     ILin= 1 X=0.000D+00 Y=-1.930547308667D+03 DE= 0.00D+00 F= -5.28D-02
 RMSU=  7.94D-04    CP:  1.27D+00  1.64D+00  1.94D+00 -3.00D+00  1.71D+00
                    CP:  3.00D+00 -3.00D+00
     ILin= 2 X=4.000D-01 Y=-1.930559005652D+03 DE=-1.17D-02 F= -5.67D-03 OKLS=F
 RMSU=  7.43D-05    CP:  1.29D+00  1.78D+00  2.41D+00 -3.00D+00  1.91D+00
                    CP:  3.00D+00 -3.00D+00  1.52D+00
     ILin= 3 X=6.000D-01 Y=-1.930557782450D+03 DE=-1.05D-02 F=  1.79D-02
     An  expanding polynomial of degree  3 produced  0.4481
 RMSU=  7.45D-07    CP:  1.27D+00  1.68D+00  2.05D+00 -3.00D+00  1.76D+00
                    CP:  3.00D+00 -3.00D+00  1.12D+00  2.30D-01
 Iteration   4 EE= -1930.55914184210     Delta-E=       -0.011833174980 Grad=1.191D-01 Max rot=    0.3495 deg.
 Gradient too large for Newton-Raphson -- use scaled steepest descent instead.
 Alpha Gap=     0.150 HL deriv= 2.45D-03
     ILin= 1 X=0.000D+00 Y=-1.930559141842D+03 DE= 0.00D+00 F= -1.48D-02
 RMSU=  1.64D-04    CP:  1.28D+00  1.75D+00  2.40D+00 -3.00D+00  2.18D+00
                    CP:  3.00D+00 -3.00D+00  1.37D+00  1.31D+00  3.00D+00
     ILin= 2 X=4.000D-01 Y=-1.930562070271D+03 DE=-2.93D-03 F=  1.80D-04 OKLS=F
 RMSU=  5.94D-06    CP:  1.28D+00  1.82D+00  2.77D+00 -3.00D+00  2.61D+00
                    CP:  3.00D+00 -3.00D+00  1.62D+00  2.56D+00  3.00D+00
                    CP:  2.01D+00
     ILin= 3 X=8.000D-01 Y=-1.930559006175D+03 DE= 1.36D-04 F=  1.51D-02
     An  expanding polynomial of degree  3 produced  0.3955
     Minimum is close to point  2 DX= -4.53D-03 DF= -3.84D-07 DXR=  1.14D-02 DFR=  1.31D-04 which will be used.
 Iteration   5 EE= -1930.56207027129     Delta-E=       -0.002928429192 Grad=6.500D-02 Max rot=    0.2347 deg.
 Gradient too large for Newton-Raphson -- use scaled steepest descent instead.
 Alpha Gap=     0.150 HL deriv= 1.18D-03
     ILin= 1 X=0.000D+00 Y=-1.930562070271D+03 DE= 0.00D+00 F= -3.74D-03
 RMSU=  6.35D-05    CP:  1.28D+00  1.82D+00  2.64D+00 -3.00D+00  2.31D+00
                    CP:  3.00D+00 -3.00D+00  1.70D+00  1.83D+00  3.00D+00
                    CP:  1.19D+00  4.07D-01
     ILin= 2 X=4.000D-01 Y=-1.930562896228D+03 DE=-8.26D-04 F= -3.90D-04 OKLS=F
 RMSU=  3.16D-06    CP:  1.29D+00  1.88D+00  2.90D+00 -3.00D+00  2.45D+00
                    CP:  3.00D+00 -3.00D+00  2.03D+00  2.39D+00  3.00D+00
                    CP:  1.37D+00  8.17D-01  2.00D+00
     ILin= 3 X=8.000D-01 Y=-1.930562382073D+03 DE=-3.12D-04 F=  2.96D-03
     An  expanding polynomial of degree  3 produced  0.4465
 RMSU=  2.39D-10    CP:  1.29D+00  1.82D+00  2.67D+00 -3.00D+00  2.33D+00
                    CP:  3.00D+00 -3.00D+00  1.74D+00  1.89D+00  3.00D+00
                    CP:  1.21D+00  4.55D-01  1.12D+00  6.49D-02
 Iteration   6 EE= -1930.56290529002     Delta-E=       -0.000835018726 Grad=3.621D-02 Max rot=    0.1134 deg.
 Gradient too large for Newton-Raphson -- use scaled steepest descent instead.
 Alpha Gap=     0.150 HL deriv= 8.79D-04
     ILin= 1 X=0.000D+00 Y=-1.930562905290D+03 DE= 0.00D+00 F= -1.24D-03
 RMSU=  2.39D-05    CP:  1.29D+00  1.85D+00  2.80D+00 -3.00D+00  2.48D+00
                    CP:  3.00D+00 -3.00D+00  1.81D+00  2.27D+00  3.00D+00
                    CP:  1.63D+00  9.03D-01  1.42D+00  2.21D+00 -3.00D+00
     ILin= 2 X=4.000D-01 Y=-1.930563160744D+03 DE=-2.55D-04 F= -3.30D-05 OKLS=F
 RMSU=  4.48D-06    CP:  1.29D+00  1.87D+00  2.92D+00 -3.00D+00  2.63D+00
                    CP:  3.00D+00 -3.00D+00  1.88D+00  2.67D+00  3.00D+00
                    CP:  2.05D+00  1.48D+00  1.73D+00  3.00D+00 -3.00D+00
                    CP:  2.00D+00
     ILin= 3 X=8.000D-01 Y=-1.930562931907D+03 DE=-2.66D-05 F=  1.18D-03
     An  expanding polynomial of degree  3 produced  0.4110
     Minimum is close to point  2 DX=  1.10D-02 DF= -1.83D-07 DXR=  2.67D-02 DFR=  7.16D-04 which will be used.
 Iteration   7 EE= -1930.56316074384     Delta-E=       -0.000255453827 Grad=2.055D-02 Max rot=    0.0785 deg.
 Gradient too large for Newton-Raphson -- use scaled steepest descent instead.
 Alpha Gap=     0.150 HL deriv= 4.04D-04
     ILin= 1 X=0.000D+00 Y=-1.930563160744D+03 DE= 0.00D+00 F= -3.49D-04
 RMSU=  7.34D-06    CP:  1.29D+00  1.87D+00  2.88D+00 -3.00D+00  2.53D+00
                    CP:  3.00D+00 -3.00D+00  1.91D+00  2.43D+00  3.00D+00
                    CP:  1.72D+00  1.12D+00  1.97D+00  3.00D+00 -3.00D+00
                    CP:  1.34D+00  3.88D-01
     ILin= 2 X=4.000D-01 Y=-1.930563242259D+03 DE=-8.15D-05 F= -5.83D-05 OKLS=F
 RMSU=  1.95D-07    CP:  1.29D+00  1.89D+00  2.98D+00 -3.00D+00  2.60D+00
                    CP:  3.00D+00 -3.00D+00  2.03D+00  2.64D+00  3.00D+00
                    CP:  1.84D+00  1.40D+00  2.66D+00  3.00D+00 -3.00D+00
                    CP:  1.76D+00  1.67D+00  2.26D+00
     ILin= 3 X=9.000D-01 Y=-1.930563180497D+03 DE=-1.98D-05 F=  3.05D-04
     An  expanding polynomial of degree  3 produced  0.4802
 RMSU=  1.26D-08    CP:  1.29D+00  1.87D+00  2.89D+00 -3.00D+00  2.54D+00
                    CP:  3.00D+00 -3.00D+00  1.93D+00  2.46D+00  3.00D+00
                    CP:  1.74D+00  1.16D+00  2.08D+00  3.00D+00 -3.00D+00
                    CP:  1.41D+00  5.86D-01  1.20D+00  1.44D-01
 Iteration   8 EE= -1930.56324459658     Delta-E=       -0.000083852736 Grad=1.142D-02 Max rot=    0.0402 deg.
 Gradient too large for Newton-Raphson -- use scaled steepest descent instead.
 Alpha Gap=     0.150 HL deriv= 3.45D-04
     ILin= 1 X=0.000D+00 Y=-1.930563244597D+03 DE= 0.00D+00 F= -1.41D-04
 Restarting incremental Fock formation.
     ILin= 2 X=4.000D-01 Y=-1.930563272255D+03 DE=-2.77D-05 F=  2.53D-06 OKLS=F
 RMSU=  1.24D-04    CP:  1.00D+00
     ILin= 3 X=9.000D-01 Y=-1.930563226201D+03 DE= 1.84D-05 F=  1.82D-04
     An  expanding polynomial of degree  3 produced  0.3930
     Minimum is close to point  2 DX= -7.04D-03 DF= -8.88D-09 DXR=  1.79D-02 DFR=  3.21D-04 which will be used.
 Iteration   9 EE= -1930.56327225487     Delta-E=       -0.000027658293 Grad=6.510D-03 Max rot=    0.0283 deg.
 QCNR:  CnvC1=4.63D-08 CnvC2=4.63D-07
 LinEq1:  Iter=  0 NonCon=     1 RMS=1.45D-05 Max=2.80D-03 NDo=     1
 AX will form     1 AO Fock derivatives at one time.
 LinEq1:  Iter=  1 NonCon=     1 RMS=1.56D-05 Max=7.42D-04 NDo=     1
 LinEq1:  Iter=  2 NonCon=     1 RMS=2.40D-06 Max=3.11D-04 NDo=     1
 LinEq1:  Iter=  3 NonCon=     1 RMS=2.54D-06 Max=2.30D-04 NDo=     1
 LinEq1:  Iter=  4 NonCon=     1 RMS=1.11D-06 Max=6.15D-05 NDo=     1
 LinEq1:  Iter=  5 NonCon=     1 RMS=9.23D-07 Max=7.32D-05 NDo=     1
 LinEq1:  Iter=  6 NonCon=     1 RMS=4.08D-07 Max=1.73D-05 NDo=     1
 LinEq1:  Iter=  7 NonCon=     1 RMS=2.76D-07 Max=1.38D-05 NDo=     1
 LinEq1:  Iter=  8 NonCon=     1 RMS=1.84D-07 Max=1.26D-05 NDo=     1
 LinEq1:  Iter=  9 NonCon=     1 RMS=9.62D-08 Max=5.09D-06 NDo=     1
 LinEq1:  Iter= 10 NonCon=     1 RMS=7.56D-08 Max=5.11D-06 NDo=     1
 LinEq1:  Iter= 11 NonCon=     1 RMS=4.16D-08 Max=2.71D-06 NDo=     1
 LinEq1:  Iter= 12 NonCon=     1 RMS=3.10D-08 Max=1.79D-06 NDo=     1
 LinEq1:  Iter= 13 NonCon=     1 RMS=1.73D-08 Max=1.51D-06 NDo=     1
 LinEq1:  Iter= 14 NonCon=     1 RMS=1.17D-08 Max=8.24D-07 NDo=     1
 LinEq1:  Iter= 15 NonCon=     1 RMS=8.44D-09 Max=5.88D-07 NDo=     1
 LinEq1:  Iter= 16 NonCon=     0 RMS=4.58D-09 Max=3.56D-07 NDo=     1
 Linear equations converged to 4.631D-08 4.631D-07 after    16 iterations.
 Angle between quadratic step and gradient=  63.02 degrees.
     ILin= 1 X=0.000D+00 Y=-1.930563272255D+03 DE= 0.00D+00 F= -2.95D-05
 RMSU=  4.92D-05    CP:  1.00D+00  1.21D+00
     ILin= 2 X=1.000D+00 Y=-1.930563286985D+03 DE=-1.47D-05 F=  4.79D-09 OKLS=T
     Accept linear search using points  1 and  2.
     An  expanding polynomial of degree  2 produced  0.9998
     Minimum is close to point  2 DX= -1.62D-04 DF= -4.55D-13 DXR=  1.63D-04 DFR=  3.09D-08 which will be used.
 Iteration  10 EE= -1930.56328698492     Delta-E=       -0.000014730044 Grad=2.887D-06 Max rot=    0.0000 deg.
 Rotation gradient small -- convergence achieved.
 SCF Done:  E(RB3LYP) =  -1930.56328698     a.u. after   10 cycles
            Convg  =    0.2887D-05                    39 Fock formations.
              S**2 =  0.0000                  -V/T =  2.0043
 Leave Link  508 at Thu Jun 29 17:45:19 2023, MaxMem=  4026531840 cpu:           10536.1 elap:           10536.6
 (Enter /opt/gaussian/g16/l601.exe)
 Copying SCF densities to generalized density rwf, IOpCl= 0 IROHF=0.

 **********************************************************************

            Population analysis using the SCF Density.

 **********************************************************************

 Orbital symmetries:
       Occupied  (A) (A) (A) (A) (A) (A) (A) (A) (A) (A) (A) (A)
                 (A) (A) (A) (A) (A) (A) (A) (A) (A) (A) (A) (A)
                 (A) (A) (A) (A) (A) (A) (A) (A) (A) (A) (A) (A)
                 (A) (A) (A) (A) (A) (A) (A) (A) (A) (A) (A) (A)
                 (A) (A) (A) (A) (A) (A) (A) (A) (A) (A) (A) (A)
                 (A) (A) (A) (A) (A) (A) (A) (A) (A) (A) (A) (A)
                 (A) (A) (A) (A) (A) (A) (A) (A) (A) (A) (A) (A)
                 (A) (A) (A) (A) (A) (A) (A) (A) (A) (A) (A) (A)
                 (A) (A) (A) (A) (A) (A) (A) (A) (A) (A) (A) (A)
                 (A) (A) (A) (A) (A) (A) (A) (A) (A) (A) (A) (A)
                 (A) (A) (A) (A) (A) (A) (A) (A) (A) (A) (A) (A)
                 (A) (A) (A) (A) (A) (A)
       Virtual   (A) (A) (A) (A) (A) (A) (A) (A) (A) (A) (A) (A)
                 (A) (A) (A) (A) (A) (A) (A) (A) (A) (A) (A) (A)
                 (A) (A) (A) (A) (A) (A) (A) (A) (A) (A) (A) (A)
                 (A) (A) (A) (A) (A) (A) (A) (A) (A) (A) (A) (A)
                 (A) (A) (A) (A) (A) (A) (A) (A) (A) (A) (A) (A)
                 (A) (A) (A) (A) (A) (A) (A) (A) (A) (A) (A) (A)
                 (A) (A) (A) (A) (A) (A) (A) (A) (A) (A) (A) (A)
                 (A) (A) (A) (A) (A) (A) (A) (A) (A) (A) (A) (A)
                 (A) (A) (A) (A) (A) (A) (A) (A) (A) (A) (A) (A)
                 (A) (A) (A) (A) (A) (A) (A) (A) (A) (A) (A) (A)
                 (A) (A) (A) (A) (A) (A) (A) (A) (A) (A) (A) (A)
                 (A) (A) (A) (A) (A) (A) (A) (A) (A) (A) (A) (A)
                 (A) (A) (A) (A) (A) (A) (A) (A) (A) (A) (A) (A)
                 (A) (A) (A) (A) (A) (A) (A) (A) (A) (A) (A) (A)
                 (A) (A) (A) (A) (A) (A) (A) (A) (A) (A) (A) (A)
                 (A) (A) (A) (A) (A) (A) (A) (A) (A) (A) (A) (A)
                 (A) (A) (A) (A) (A) (A) (A) (A) (A) (A) (A) (A)
                 (A) (A) (A) (A) (A) (A) (A) (A) (A) (A) (A) (A)
                 (A) (A) (A) (A) (A) (A) (A) (A) (A) (A) (A) (A)
                 (A) (A) (A) (A) (A) (A) (A) (A) (A) (A) (A) (A)
                 (A) (A) (A) (A) (A) (A) (A) (A) (A) (A) (A) (A)
                 (A) (A) (A) (A) (A) (A) (A) (A) (A) (A) (A) (A)
                 (A) (A) (A) (A) (A) (A) (A) (A) (A) (A) (A) (A)
                 (A) (A) (A) (A) (A) (A) (A) (A) (A) (A) (A) (A)
                 (A) (A) (A) (A) (A) (A) (A) (A) (A) (A) (A) (A)
                 (A) (A) (A) (A) (A) (A) (A) (A) (A) (A) (A) (A)
                 (A) (A) (A) (A) (A) (A) (A) (A) (A) (A) (A) (A)
                 (A) (A) (A) (A) (A) (A) (A) (A) (A) (A) (A) (A)
                 (A) (A) (A) (A) (A) (A) (A) (A) (A) (A) (A) (A)
                 (A) (A) (A) (A) (A) (A) (A) (A) (A) (A) (A) (A)
                 (A) (A) (A) (A) (A) (A) (A) (A) (A) (A) (A) (A)
                 (A) (A) (A) (A) (A) (A) (A) (A) (A) (A) (A) (A)
                 (A) (A) (A) (A) (A) (A) (A) (A) (A) (A) (A) (A)
                 (A) (A) (A) (A) (A) (A) (A) (A) (A) (A) (A) (A)
                 (A) (A) (A) (A) (A) (A) (A) (A) (A) (A) (A) (A)
                 (A) (A) (A) (A) (A) (A) (A) (A) (A) (A) (A) (A)
                 (A) (A) (A) (A) (A) (A) (A) (A) (A) (A) (A) (A)
                 (A) (A) (A) (A) (A) (A) (A) (A) (A) (A) (A) (A)
                 (A) (A) (A) (A) (A) (A) (A) (A) (A) (A) (A) (A)
                 (A) (A) (A) (A) (A) (A) (A) (A) (A) (A) (A) (A)
                 (A) (A) (A) (A) (A) (A) (A) (A) (A) (A) (A) (A)
                 (A) (A) (A) (A) (A) (A) (A) (A) (A) (A) (A) (A)
                 (A) (A) (A) (A) (A) (A) (A) (A) (A) (A) (A) (A)
                 (A) (A) (A) (A) (A) (A) (A) (A) (A) (A) (A) (A)
                 (A) (A) (A) (A) (A) (A) (A) (A) (A) (A) (A) (A)
                 (A) (A) (A) (A) (A) (A) (A) (A) (A) (A) (A) (A)
                 (A) (A) (A) (A) (A) (A) (A) (A) (A) (A) (A) (A)
                 (A) (A) (A) (A) (A) (A) (A) (A) (A) (A) (A) (A)
                 (A) (A) (A) (A) (A) (A) (A) (A) (A) (A) (A) (A)
                 (A) (A) (A) (A) (A) (A) (A) (A) (A) (A) (A) (A)
                 (A) (A) (A) (A) (A) (A) (A) (A) (A) (A) (A) (A)
                 (A) (A) (A) (A) (A) (A) (A) (A) (A) (A) (A) (A)
                 (A) (A) (A) (A) (A) (A) (A) (A) (A) (A) (A) (A)
                 (A) (A) (A) (A) (A) (A) (A) (A) (A) (A) (A) (A)
                 (A) (A) (A) (A) (A) (A) (A) (A) (A) (A) (A) (A)
                 (A) (A) (A) (A) (A) (A) (A) (A) (A) (A) (A) (A)
                 (A) (A) (A) (A) (A) (A) (A) (A) (A) (A) (A) (A)
                 (A) (A) (A) (A) (A) (A) (A) (A) (A) (A) (A) (A)
                 (A) (A) (A) (A) (A) (A) (A) (A) (A) (A) (A) (A)
                 (A) (A) (A) (A) (A) (A) (A) (A) (A) (A) (A) (A)
                 (A) (A) (A) (A) (A) (A) (A) (A) (A) (A) (A) (A)
                 (A) (A) (A) (A) (A) (A) (A) (A) (A) (A) (A) (A)
                 (A) (A) (A) (A) (A) (A) (A) (A) (A) (A) (A) (A)
                 (A) (A) (A) (A) (A) (A) (A) (A) (A) (A) (A) (A)
                 (A) (A) (A) (A) (A) (A) (A) (A) (A)
 The electronic state is 1-A.
 Alpha  occ. eigenvalues --  -19.17194 -19.16760 -19.16554 -19.14634 -19.14563
 Alpha  occ. eigenvalues --  -19.13782 -19.12749 -19.11907 -19.11693 -19.09939
 Alpha  occ. eigenvalues --  -14.41215 -14.38563 -14.36550 -14.35795 -14.34402
 Alpha  occ. eigenvalues --  -14.33341 -14.32576 -14.31160 -10.33479 -10.31581
 Alpha  occ. eigenvalues --  -10.30388 -10.30197 -10.29283 -10.28735 -10.27465
 Alpha  occ. eigenvalues --  -10.27269 -10.26908 -10.26606 -10.25968 -10.24884
 Alpha  occ. eigenvalues --  -10.24302 -10.24200 -10.23981 -10.23956 -10.22856
 Alpha  occ. eigenvalues --  -10.21613 -10.19924  -1.09355  -1.07301  -1.06549
 Alpha  occ. eigenvalues --   -1.05763  -1.04875  -1.04784  -1.03586  -1.02963
 Alpha  occ. eigenvalues --   -1.02144  -1.01339  -1.01296  -1.00447  -1.00045
 Alpha  occ. eigenvalues --   -0.98066  -0.91523  -0.91233  -0.90596  -0.89230
 Alpha  occ. eigenvalues --   -0.82798  -0.80857  -0.78743  -0.78445  -0.77280
 Alpha  occ. eigenvalues --   -0.76179  -0.72470  -0.70531  -0.69927  -0.68161
 Alpha  occ. eigenvalues --   -0.67403  -0.66552  -0.65111  -0.63942  -0.63434
 Alpha  occ. eigenvalues --   -0.61304  -0.60824  -0.60309  -0.59525  -0.57366
 Alpha  occ. eigenvalues --   -0.56807  -0.56022  -0.55400  -0.55189  -0.54466
 Alpha  occ. eigenvalues --   -0.54081  -0.52955  -0.52649  -0.52135  -0.51670
 Alpha  occ. eigenvalues --   -0.51082  -0.50880  -0.50411  -0.49971  -0.49155
 Alpha  occ. eigenvalues --   -0.49053  -0.47927  -0.47761  -0.47157  -0.46305
 Alpha  occ. eigenvalues --   -0.46118  -0.45981  -0.45633  -0.45037  -0.44733
 Alpha  occ. eigenvalues --   -0.44577  -0.43986  -0.43084  -0.42721  -0.42374
 Alpha  occ. eigenvalues --   -0.42092  -0.41311  -0.41117  -0.40588  -0.40385
 Alpha  occ. eigenvalues --   -0.39729  -0.39277  -0.38523  -0.37783  -0.36808
 Alpha  occ. eigenvalues --   -0.36141  -0.35905  -0.34972  -0.34552  -0.33720
 Alpha  occ. eigenvalues --   -0.32573  -0.32350  -0.32140  -0.31680  -0.31256
 Alpha  occ. eigenvalues --   -0.30910  -0.30521  -0.30339  -0.29092  -0.28972
 Alpha  occ. eigenvalues --   -0.28657  -0.28084  -0.28057  -0.27586  -0.27345
 Alpha  occ. eigenvalues --   -0.27185  -0.26429  -0.21877
 Alpha virt. eigenvalues --   -0.07502  -0.03514  -0.03108  -0.03053  -0.02849
 Alpha virt. eigenvalues --   -0.02273  -0.01690  -0.01507  -0.01332  -0.00958
 Alpha virt. eigenvalues --   -0.00110   0.00407   0.00545   0.01048   0.01209
 Alpha virt. eigenvalues --    0.01820   0.01842   0.02151   0.02471   0.02903
 Alpha virt. eigenvalues --    0.03221   0.03505   0.03659   0.04039   0.04600
 Alpha virt. eigenvalues --    0.04859   0.04995   0.05105   0.05345   0.05604
 Alpha virt. eigenvalues --    0.06136   0.06228   0.06402   0.06852   0.07049
 Alpha virt. eigenvalues --    0.07109   0.07409   0.07529   0.07663   0.07873
 Alpha virt. eigenvalues --    0.08327   0.08390   0.08513   0.08588   0.08777
 Alpha virt. eigenvalues --    0.09119   0.09295   0.09480   0.09709   0.09950
 Alpha virt. eigenvalues --    0.10305   0.10314   0.10536   0.10814   0.10915
 Alpha virt. eigenvalues --    0.11058   0.11137   0.11162   0.11360   0.11575
 Alpha virt. eigenvalues --    0.11869   0.12126   0.12195   0.12511   0.12637
 Alpha virt. eigenvalues --    0.12711   0.12971   0.13120   0.13282   0.13366
 Alpha virt. eigenvalues --    0.13545   0.13745   0.13802   0.13889   0.14212
 Alpha virt. eigenvalues --    0.14271   0.14346   0.14480   0.14700   0.14989
 Alpha virt. eigenvalues --    0.15191   0.15530   0.15583   0.15659   0.15858
 Alpha virt. eigenvalues --    0.15879   0.16110   0.16498   0.16531   0.16722
 Alpha virt. eigenvalues --    0.16977   0.17142   0.17283   0.17382   0.17913
 Alpha virt. eigenvalues --    0.18113   0.18322   0.18461   0.18614   0.18894
 Alpha virt. eigenvalues --    0.18969   0.19129   0.19222   0.19473   0.19830
 Alpha virt. eigenvalues --    0.20120   0.20220   0.20307   0.20401   0.20585
 Alpha virt. eigenvalues --    0.20884   0.20939   0.21196   0.21340   0.21389
 Alpha virt. eigenvalues --    0.21581   0.22001   0.22136   0.22229   0.22509
 Alpha virt. eigenvalues --    0.22648   0.22864   0.23135   0.23175   0.23290
 Alpha virt. eigenvalues --    0.23807   0.24001   0.24123   0.24223   0.24559
 Alpha virt. eigenvalues --    0.24654   0.24763   0.25153   0.25251   0.25395
 Alpha virt. eigenvalues --    0.25857   0.26010   0.26216   0.26254   0.26577
 Alpha virt. eigenvalues --    0.26756   0.26927   0.27149   0.27287   0.27550
 Alpha virt. eigenvalues --    0.27755   0.27855   0.28056   0.28195   0.28362
 Alpha virt. eigenvalues --    0.28519   0.28733   0.28812   0.29040   0.29181
 Alpha virt. eigenvalues --    0.29390   0.29484   0.29724   0.29933   0.30222
 Alpha virt. eigenvalues --    0.30318   0.30649   0.30805   0.31074   0.31202
 Alpha virt. eigenvalues --    0.31478   0.31632   0.31826   0.32191   0.32219
 Alpha virt. eigenvalues --    0.32393   0.32544   0.32726   0.32956   0.32974
 Alpha virt. eigenvalues --    0.33226   0.33339   0.33428   0.33831   0.33906
 Alpha virt. eigenvalues --    0.34039   0.34347   0.34587   0.34818   0.34984
 Alpha virt. eigenvalues --    0.35293   0.35367   0.35525   0.35766   0.36052
 Alpha virt. eigenvalues --    0.36164   0.36414   0.36518   0.36635   0.36727
 Alpha virt. eigenvalues --    0.37025   0.37259   0.37619   0.37842   0.37929
 Alpha virt. eigenvalues --    0.38446   0.38643   0.38745   0.39135   0.39283
 Alpha virt. eigenvalues --    0.39603   0.40033   0.40175   0.40545   0.41087
 Alpha virt. eigenvalues --    0.41197   0.41606   0.41988   0.42221   0.42518
 Alpha virt. eigenvalues --    0.42900   0.42997   0.43395   0.43733   0.44249
 Alpha virt. eigenvalues --    0.44712   0.44854   0.45056   0.45689   0.46200
 Alpha virt. eigenvalues --    0.46678   0.47264   0.47575   0.47718   0.48480
 Alpha virt. eigenvalues --    0.48601   0.49275   0.49754   0.50223   0.50835
 Alpha virt. eigenvalues --    0.51141   0.52135   0.52474   0.52633   0.52808
 Alpha virt. eigenvalues --    0.53610   0.54005   0.54550   0.54724   0.55137
 Alpha virt. eigenvalues --    0.55343   0.56248   0.56319   0.56929   0.57121
 Alpha virt. eigenvalues --    0.57563   0.57912   0.58712   0.59009   0.59507
 Alpha virt. eigenvalues --    0.59935   0.60184   0.60598   0.60640   0.60813
 Alpha virt. eigenvalues --    0.61055   0.61858   0.62223   0.62589   0.62877
 Alpha virt. eigenvalues --    0.62985   0.63332   0.63794   0.64300   0.64319
 Alpha virt. eigenvalues --    0.64664   0.65055   0.65677   0.66040   0.66910
 Alpha virt. eigenvalues --    0.67206   0.67633   0.68021   0.68345   0.68893
 Alpha virt. eigenvalues --    0.69102   0.69376   0.70042   0.70083   0.71060
 Alpha virt. eigenvalues --    0.71244   0.71846   0.71958   0.72254   0.72710
 Alpha virt. eigenvalues --    0.72954   0.73546   0.73910   0.74156   0.74696
 Alpha virt. eigenvalues --    0.74883   0.75083   0.75157   0.75873   0.76613
 Alpha virt. eigenvalues --    0.76728   0.77321   0.77545   0.77713   0.78037
 Alpha virt. eigenvalues --    0.78918   0.79215   0.79467   0.80202   0.80697
 Alpha virt. eigenvalues --    0.80873   0.81580   0.82428   0.82986   0.83212
 Alpha virt. eigenvalues --    0.83922   0.84875   0.85714   0.85932   0.86575
 Alpha virt. eigenvalues --    0.87367   0.87988   0.88981   0.89164   0.89744
 Alpha virt. eigenvalues --    0.89848   0.90562   0.91724   0.92129   0.92642
 Alpha virt. eigenvalues --    0.93286   0.94066   0.94519   0.95453   0.95516
[...]
 Alpha virt. eigenvalues --    0.00063   0.00552   0.00654   0.01191   0.01297
 Alpha virt. eigenvalues --    0.02001   0.02232   0.02521   0.02595   0.03058
 Alpha virt. eigenvalues --    0.03417   0.03590   0.03793   0.04208   0.04818
 Alpha virt. eigenvalues --    0.04919   0.05122   0.05318   0.05540   0.05921
 Alpha virt. eigenvalues --    0.06335   0.06395   0.06705   0.07264   0.07334
 Alpha virt. eigenvalues --    0.07399   0.07537   0.07880   0.07923   0.07967
 Alpha virt. eigenvalues --    0.08468   0.08537   0.08704   0.08883   0.09055
 Alpha virt. eigenvalues --    0.09289   0.09664   0.09801   0.09937   0.10260
 Alpha virt. eigenvalues --    0.10474   0.10533   0.10729   0.11026   0.11105
 Alpha virt. eigenvalues --    0.11259   0.11280   0.11444   0.11655   0.11788
 Alpha virt. eigenvalues --    0.12168   0.12395   0.12545   0.12804   0.12864
 Alpha virt. eigenvalues --    0.12936   0.13311   0.13450   0.13561   0.13616
 Alpha virt. eigenvalues --    0.13867   0.13965   0.14129   0.14239   0.14450
 Alpha virt. eigenvalues --    0.14607   0.14682   0.14795   0.14988   0.15260
 Alpha virt. eigenvalues --    0.15451   0.15808   0.15953   0.16013   0.16225
 Alpha virt. eigenvalues --    0.16274   0.16526   0.16811   0.16878   0.17037
 Alpha virt. eigenvalues --    0.17326   0.17455   0.17708   0.17790   0.18135
 Alpha virt. eigenvalues --    0.18442   0.18745   0.18905   0.19023   0.19310
 Alpha virt. eigenvalues --    0.19372   0.19450   0.19518   0.19822   0.20224
 Alpha virt. eigenvalues --    0.20443   0.20658   0.20730   0.20829   0.20856
 Alpha virt. eigenvalues --    0.21259   0.21349   0.21626   0.21875   0.21968
 Alpha virt. eigenvalues --    0.22070   0.22337   0.22497   0.22664   0.22915
 Alpha virt. eigenvalues --    0.23038   0.23185   0.23494   0.23692   0.23926
 Alpha virt. eigenvalues --    0.24071   0.24334   0.24494   0.24812   0.24921
 Alpha virt. eigenvalues --    0.25176   0.25423   0.25500   0.25612   0.25861
 Alpha virt. eigenvalues --    0.26142   0.26431   0.26598   0.26832   0.26949
 Alpha virt. eigenvalues --    0.27158   0.27303   0.27478   0.27695   0.27736
 Alpha virt. eigenvalues --    0.27941   0.28246   0.28499   0.28638   0.28782
 Alpha virt. eigenvalues --    0.28877   0.29169   0.29313   0.29490   0.29645
 Alpha virt. eigenvalues --    0.29755   0.29987   0.30128   0.30304   0.30648
 Alpha virt. eigenvalues --    0.30683   0.30971   0.31261   0.31392   0.31596
 Alpha virt. eigenvalues --    0.31753   0.31998   0.32200   0.32383   0.32539
 Alpha virt. eigenvalues --    0.32619   0.33063   0.33180   0.33217   0.33280
 Alpha virt. eigenvalues --    0.33596   0.33665   0.33852   0.34012   0.34209
 Alpha virt. eigenvalues --    0.34385   0.34691   0.34725   0.35102   0.35430
 Alpha virt. eigenvalues --    0.35476   0.35693   0.35954   0.35990   0.36229
 Alpha virt. eigenvalues --    0.36615   0.36772   0.36927   0.36998   0.37035
 Alpha virt. eigenvalues --    0.37396   0.37608   0.37804   0.37944   0.38480
 Alpha virt. eigenvalues --    0.38678   0.38929   0.39302   0.39607   0.39842
 Alpha virt. eigenvalues --    0.40165   0.40224   0.40718   0.41075   0.41501
 Alpha virt. eigenvalues --    0.41660   0.41937   0.42161   0.42466   0.42927
 Alpha virt. eigenvalues --    0.43183   0.43716   0.44053   0.44148   0.44629
 Alpha virt. eigenvalues --    0.44899   0.45181   0.45490   0.46566   0.46894
 Alpha virt. eigenvalues --    0.47006   0.47513   0.47868   0.48436   0.48656
 Alpha virt. eigenvalues --    0.49177   0.49888   0.50469   0.50632   0.51482
 Alpha virt. eigenvalues --    0.51598   0.52024   0.52618   0.53011   0.53948
 Alpha virt. eigenvalues --    0.54195   0.54690   0.54979   0.55278   0.55767
 Alpha virt. eigenvalues --    0.56017   0.56534   0.56756   0.57569   0.57722
 Alpha virt. eigenvalues --    0.58344   0.58363   0.59188   0.59448   0.59864
 Alpha virt. eigenvalues --    0.60616   0.60639   0.60866   0.61283   0.61521
 Alpha virt. eigenvalues --    0.61685   0.62234   0.62591   0.62981   0.63103
 Alpha virt. eigenvalues --    0.63479   0.64036   0.64313   0.64484   0.64929
 Alpha virt. eigenvalues --    0.65403   0.65787   0.66206   0.66552   0.67585
 Alpha virt. eigenvalues --    0.67632   0.68084   0.68389   0.68575   0.69087
 Alpha virt. eigenvalues --    0.69636   0.69940   0.70367   0.70502   0.71140
 Alpha virt. eigenvalues --    0.71500   0.72051   0.72585   0.72736   0.73159
 Alpha virt. eigenvalues --    0.73282   0.73888   0.74159   0.74646   0.75210
 Alpha virt. eigenvalues --    0.75498   0.75583   0.75953   0.76257   0.77156
 Alpha virt. eigenvalues --    0.77366   0.77811   0.78028   0.78157   0.78346
 Alpha virt. eigenvalues --    0.79198   0.79757   0.80103   0.80588   0.80846
 Alpha virt. eigenvalues --    0.81137   0.82182   0.82847   0.83392   0.83607
 Alpha virt. eigenvalues --    0.84067   0.85088   0.86120   0.86461   0.86985
 Alpha virt. eigenvalues --    0.87684   0.88391   0.89357   0.89654   0.89825
 Alpha virt. eigenvalues --    0.90304   0.90961   0.91729   0.91896   0.92890
 Alpha virt. eigenvalues --    0.93708   0.94446   0.94657   0.95573   0.96026
 Alpha virt. eigenvalues --    0.96423   0.96634   0.97408   0.98237   0.98300
 Alpha virt. eigenvalues --    0.99014   0.99763   1.00337   1.01759   1.02659
 Alpha virt. eigenvalues --    1.02933   1.03374   1.03611   1.04667   1.04816
 Alpha virt. eigenvalues --    1.05038   1.05464   1.05816   1.07172   1.07429
 Alpha virt. eigenvalues --    1.07895   1.08598   1.09263   1.09554   1.10621
 Alpha virt. eigenvalues --    1.11316   1.11934   1.12432   1.12694   1.12934
 Alpha virt. eigenvalues --    1.13400   1.13614   1.14103   1.14724   1.15126
 Alpha virt. eigenvalues --    1.15813   1.16167   1.16434   1.17223   1.17976
 Alpha virt. eigenvalues --    1.18246   1.19020   1.19184   1.20168   1.20584
 Alpha virt. eigenvalues --    1.20718   1.21043   1.21519   1.22182   1.22586
 Alpha virt. eigenvalues --    1.22848   1.23367   1.23665   1.24315   1.24808
 Alpha virt. eigenvalues --    1.24918   1.26002   1.26612   1.27017   1.27645
 Alpha virt. eigenvalues --    1.28011   1.29275   1.29602   1.29835   1.30774
 Alpha virt. eigenvalues --    1.31459   1.31695   1.32084   1.32486   1.33189
 Alpha virt. eigenvalues --    1.33849   1.34524   1.35018   1.35313   1.35902
 Alpha virt. eigenvalues --    1.37164   1.37313   1.39138   1.39588   1.39807
 Alpha virt. eigenvalues --    1.40878   1.41819   1.42464   1.43718   1.44899
 Alpha virt. eigenvalues --    1.45178   1.47944   1.48658   1.49853   1.50418
 Alpha virt. eigenvalues --    1.52136   1.52992   1.53507   1.54586   1.54828
 Alpha virt. eigenvalues --    1.55437   1.55853   1.56166   1.56908   1.57661
 Alpha virt. eigenvalues --    1.58145   1.58764   1.59171   1.59347   1.60416
 Alpha virt. eigenvalues --    1.60941   1.61719   1.62121   1.63409   1.63633
 Alpha virt. eigenvalues --    1.63813   1.64742   1.64857   1.65224   1.66367
 Alpha virt. eigenvalues --    1.67226   1.67819   1.68552   1.69596   1.70603
 Alpha virt. eigenvalues --    1.71587   1.71660   1.72646   1.73242   1.73727
 Alpha virt. eigenvalues --    1.74404   1.74604   1.75327   1.76149   1.77450
 Alpha virt. eigenvalues --    1.78543   1.78833   1.79427   1.80116   1.80473
 Alpha virt. eigenvalues --    1.80752   1.81601   1.83472   1.83620   1.83821
 Alpha virt. eigenvalues --    1.85273   1.86285   1.86726   1.87698   1.87929
 Alpha virt. eigenvalues --    1.88043   1.88628   1.90302   1.90792   1.91387
 Alpha virt. eigenvalues --    1.91675   1.91928   1.92602   1.94770   1.95045
 Alpha virt. eigenvalues --    1.95860   1.96785   1.97582   1.98325   1.98908
 Alpha virt. eigenvalues --    1.99386   2.00156   2.01296   2.03295   2.03571
 Alpha virt. eigenvalues --    2.05166   2.06762   2.08246   2.09278   2.10922
 Alpha virt. eigenvalues --    2.11741   2.11980   2.14768   2.16276   2.16949
 Alpha virt. eigenvalues --    2.17533   2.17728   2.19100   2.19497   2.20024
 Alpha virt. eigenvalues --    2.21900   2.23910   2.24219   2.24544   2.26940
 Alpha virt. eigenvalues --    2.27719   2.28649   2.30554   2.31853   2.32394
 Alpha virt. eigenvalues --    2.34316   2.38478   2.38977   2.39175   2.40095
 Alpha virt. eigenvalues --    2.41987   2.44325   2.45266   2.46279   2.47391
 Alpha virt. eigenvalues --    2.48522   2.49289   2.49628   2.50990   2.51042
 Alpha virt. eigenvalues --    2.51604   2.52262   2.54570   2.56259   2.56886
 Alpha virt. eigenvalues --    2.57054   2.57318   2.58356   2.58881   2.59635
 Alpha virt. eigenvalues --    2.61468   2.61552   2.62970   2.63123   2.64840
 Alpha virt. eigenvalues --    2.65011   2.65793   2.67304   2.68790   2.70290
 Alpha virt. eigenvalues --    2.72553   2.72752   2.73345   2.74288   2.75177
 Alpha virt. eigenvalues --    2.76334   2.76978   2.77425   2.78033   2.79261
 Alpha virt. eigenvalues --    2.79391   2.80576   2.80861   2.81628   2.82050
 Alpha virt. eigenvalues --    2.82548   2.83528   2.84216   2.84584   2.84687
 Alpha virt. eigenvalues --    2.85340   2.85793   2.86625   2.87985   2.88293
 Alpha virt. eigenvalues --    2.89228   2.89395   2.90758   2.91033   2.91394
 Alpha virt. eigenvalues --    2.91987   2.92172   2.92593   2.92984   2.94211
 Alpha virt. eigenvalues --    2.95044   2.96060   2.97005   2.97486   2.97715
 Alpha virt. eigenvalues --    2.98155   2.99243   3.00354   3.00911   3.01771
 Alpha virt. eigenvalues --    3.02017   3.03078   3.03318   3.04411   3.04813
 Alpha virt. eigenvalues --    3.05238   3.06890   3.07160   3.07858   3.09028
 Alpha virt. eigenvalues --    3.10213   3.10964   3.11642   3.12150   3.14021
 Alpha virt. eigenvalues --    3.14410   3.15125   3.16199   3.18501   3.19806
 Alpha virt. eigenvalues --    3.20417   3.21470   3.23130   3.24977   3.25931
 Alpha virt. eigenvalues --    3.26078   3.27081   3.28435   3.29007   3.30774
 Alpha virt. eigenvalues --    3.32336   3.33007   3.33196   3.34192   3.35412
 Alpha virt. eigenvalues --    3.35542   3.35578   3.37179   3.37834   3.39913
 Alpha virt. eigenvalues --    3.41186   3.41545   3.42870   3.46508   3.46673
 Alpha virt. eigenvalues --    3.47669   3.48795   3.52846   3.54518   3.54782
 Alpha virt. eigenvalues --    3.56314   3.57582   3.59753   3.61924   3.62295
 Alpha virt. eigenvalues --    3.62826   3.67410   3.68158   3.71039   3.71850
 Alpha virt. eigenvalues --    3.74793   3.75846   3.78517   3.80595   3.83648
 Alpha virt. eigenvalues --    3.86087   3.87332   3.89492   3.89852   3.91060
 Alpha virt. eigenvalues --    3.91611   3.93880   3.94196   3.95944   3.97020
 Alpha virt. eigenvalues --    3.99527   4.00612   4.01571   4.03915   4.04792
 Alpha virt. eigenvalues --    4.07508   4.08202   4.09902   4.12965   4.14207
 Alpha virt. eigenvalues --    4.15178   4.18964   4.20127   4.20787   4.28194
 Alpha virt. eigenvalues --    4.29395   4.46251   4.50488   4.51881   4.61333
 Alpha virt. eigenvalues --    4.68100   4.72137   4.80424   4.81690   4.93997
 Alpha virt. eigenvalues --    4.99118   5.06026   5.07145   5.07846   5.08180
 Alpha virt. eigenvalues --    5.08354   5.08959   5.11226   5.12875   5.13920
 Alpha virt. eigenvalues --    5.15029   5.15680   5.17372   5.17484   5.17935
 Alpha virt. eigenvalues --    5.18474   5.19856   5.22735   5.24398   5.27098
 Alpha virt. eigenvalues --    5.33508   5.38374   5.38768   5.39603   5.40204
 Alpha virt. eigenvalues --    5.44181   5.46189   5.47281   5.50945   5.57306
 Alpha virt. eigenvalues --    5.58868   5.59975   5.65650   5.84959   5.86423
 Alpha virt. eigenvalues --   23.52910  23.55162  23.56416  23.63470  23.65711
 Alpha virt. eigenvalues --   23.68623  23.69447  23.71725  23.73058  23.73899
 Alpha virt. eigenvalues --   23.75274  23.78475  23.84646  23.85944  23.88392
 Alpha virt. eigenvalues --   23.90965  23.98146  24.07715  24.11562  35.48445
 Alpha virt. eigenvalues --   35.51426  35.54747  35.55416  35.64525  35.69799
 Alpha virt. eigenvalues --   35.70608  35.74673  49.86861  49.89216  49.89421
 Alpha virt. eigenvalues --   49.91516  49.93045  49.94689  49.96126  50.00100
 Alpha virt. eigenvalues --   50.03038  50.06789
          Condensed to atoms (all electrons):
 Mulliken charges:
               1
     1  C    0.287495
     2  N   -0.103213
     3  C   -0.237715
     4  C   -1.016109
     5  N    0.458657
     6  C   -0.162846
     7  C   -0.769180
     8  C   -0.435671
     9  C   -0.146958
    10  O    0.066302
    11  C   -0.682175
    12  O   -0.241404
    13  O   -0.214815
    14  O   -0.181008
    15  N   -0.349248
    16  C    0.394788
    17  N   -0.639957
    18  C    0.064980
    19  O   -0.388257
    20  N   -0.617472
    21  H    0.283072
    22  H    0.303598
    23  H    0.320850
    24  H    0.342209
    25  H    0.264648
    26  H    0.289542
    27  H    0.243902
    28  H    0.327331
    29  H    0.334323
    30  H    0.426493
    31  H    0.821838
    32  H    0.386827
    33  H    0.623696
    34  C   -0.626013
    35  C    0.307632
    36  N    0.454501
    37  C   -0.295255
    38  O   -0.386338
    39  N   -0.358934
    40  C   -0.055707
    41  N   -0.739717
    42  C   -1.015310
    43  C   -0.208726
    44  C   -0.427601
    45  C   -0.076490
    46  O    0.122372
    47  C   -0.621775
    48  O   -0.279176
    49  O   -0.169717
    50  O   -0.273204
    51  H    0.303657
    52  H    0.307941
    53  H    0.592155
    54  H    0.410135
    55  H    0.377135
    56  H    0.364289
    57  H    0.332896
    58  H    0.270496
    59  H    0.289796
    60  H    0.350684
    61  H    0.336546
    62  H    0.317049
    63  H    0.342155
 Sum of Mulliken charges =  -0.00000
 Mulliken charges with hydrogens summed into heavy atoms:
               1
     1  C    0.570567
     2  N   -0.103213
     3  C   -0.237715
     4  C   -1.016109
     5  N    0.458657
     6  C    0.140751
     7  C   -0.448330
     8  C   -0.093462
     9  C    0.117690
    10  O    0.066302
    11  C   -0.148730
    12  O    0.085928
    13  O    0.119509
    14  O    0.245485
    15  N   -0.349248
    16  C    0.394788
    17  N    0.181880
    18  C    0.064980
    19  O   -0.388257
    20  N    0.393051
    34  C   -0.322355
    35  C    0.615573
    36  N    0.454501
    37  C   -0.295255
    38  O   -0.386338
    39  N   -0.358934
    40  C   -0.055707
    41  N    0.262573
    42  C   -0.638175
    43  C    0.155563
    44  C   -0.094705
    45  C    0.194006
    46  O    0.122372
    47  C    0.018706
    48  O    0.057370
    49  O    0.147332
    50  O    0.068951
 Electronic spatial extent (au):  <R**2>=          28219.9758
 Charge=             -0.0000 electrons
 Dipole moment (field-independent basis, Debye):
    X=              9.9784    Y=             -1.0161    Z=             -0.1258  Tot=             10.0308
 Quadrupole moment (field-independent basis, Debye-Ang):
   XX=           -181.4476   YY=           -219.6381   ZZ=           -236.0662
   XY=              2.5071   XZ=             16.8549   YZ=              3.1407
 Traceless Quadrupole moment (field-independent basis, Debye-Ang):
   XX=             30.9364   YY=             -7.2541   ZZ=            -23.6822
   XY=              2.5071   XZ=             16.8549   YZ=              3.1407
 Octapole moment (field-independent basis, Debye-Ang**2):
  XXX=            228.9473  YYY=            -33.3359  ZZZ=              2.5661  XYY=            187.1563
  XXY=             25.1464  XXZ=            127.7791  XZZ=             99.7306  YZZ=             16.1232
  YYZ=             16.5266  XYZ=             -9.0111
 Hexadecapole moment (field-independent basis, Debye-Ang**3):
 XXXX=         -26685.7203 YYYY=          -6376.7433 ZZZZ=          -1652.8616 XXXY=          -1507.7673
 XXXZ=            969.3748 YYYX=            400.7302 YYYZ=             75.2372 ZZZX=            141.6067
 ZZZY=             -2.2184 XXYY=          -5869.1970 XXZZ=          -5507.3607 YYZZ=          -1393.5600
 XXYZ=           -347.0440 YYXZ=            298.7236 ZZXY=           -128.9372
 N-N= 4.194881586872D+03 E-N=-1.290849471008D+04  KE= 1.923746955656D+03
 No NMR shielding tensors so no spin-rotation constants.
 Leave Link  601 at Thu Jul  6 16:03:28 2023, MaxMem=  4026531840 cpu:               1.7 elap:               1.7
 (Enter /opt/gaussian/g16/l9999.exe)
 Unable to Open any file for archive entry.
 1\1\GINC-WARIO\FOpt\RB3LYP\6-311++G(d)\C19H26N8O10\HWANG\06-Jul-2023\0
 \\#P b3lyp/6-311++G* EmpiricalDispersion=GD3BJ scf(qc) opt(tight,maxcy
 cle=100)\\Gaussian input prepared by ASE\\0,1\C,-5.1617285106,-2.51549
 37709,-0.1412891831\N,-4.1149718437,-3.2575997021,-0.3530707122\C,-3.0
 392838355,-2.4045312502,-0.1733602475\C,-3.4753824028,-1.1250417703,0.
 159967987\N,-4.8505853281,-1.197952388,0.1959337294\C,-5.8198134247,-0
 .1187707606,0.2785279039\C,-5.748327993,0.787648838,1.559592025\C,-5.9
 146361902,2.1997012131,0.9500001435\C,-5.2186364431,2.0310034302,-0.39
 9095811\O,-5.715148789,0.7496078271,-0.8447180604\C,-5.4949634032,3.09
 53478361,-1.4404172753\O,-4.8079104852,2.8804007105,-2.6644388877\O,-7
 .2842865914,2.5640160872,0.8074945499\O,-4.5960255731,0.650518734,2.34
 8200348\N,-2.7253754567,-0.0284285702,0.4178829348\C,-1.4199840061,-0.
 2440993565,0.3213070483\N,-0.8948401657,-1.4602571052,-0.0157038944\C,
 -1.6335155261,-2.6337486159,-0.2822793439\O,-1.039103762,-3.6744396164
 ,-0.5662755478\N,-0.5517329449,0.7604709452,0.5461606336\H,-6.19043043
 3,-2.8403493786,-0.2037161651\H,-6.7934298808,-0.6085476244,0.21957434
 39\H,-6.5933334939,0.5725863558,2.213894416\H,-5.4613799064,2.95054266
 58,1.5954809271\H,-4.1348237874,1.9495067891,-0.239115166\H,-5.2352630
 364,4.0704023648,-1.003915253\H,-6.5525909504,3.1214152144,-1.69997496
 84\H,-3.867408144,2.7534876429,-2.4890469896\H,-7.679747826,2.03770809
 37,0.0997252432\H,-3.7959013393,0.6393192467,1.7864877006\H,0.13101633
 28,-1.5668177435,-0.0601517725\H,-0.9274889783,1.6352577347,0.86928329
 31\H,0.4590538426,0.6148247851,0.5664204465\C,3.9739401912,-3.17002243
 45,-0.5875435803\C,4.7393324161,-2.1016057749,-0.2754412787\N,4.179739
 7216,-0.9164371666,0.1214174687\C,2.758805639,-0.7873369648,0.19626656
 22\O,2.2816650063,0.2891235047,0.5633087415\N,2.0014511967,-1.85789360
 45,-0.1246736133\C,2.5495704865,-3.0150268332,-0.5066598458\N,1.732830
 2993,-4.0251428684,-0.8081581345\C,4.9518725554,0.2717191063,0.3848277
 017\C,6.3423957261,0.1866537725,1.0235232421\C,6.7493242131,1.66840542
 04,0.8884754887\C,6.1319789157,2.0433751289,-0.5000459032\O,5.22458038
 07,0.9693465546,-0.836913841\C,5.4327707828,3.3978383791,-0.5373814819
 \O,5.0135233427,3.7600006807,-1.842854792\O,6.319239196,2.4711643715,1
 .9761840006\O,7.2479428173,-0.6494687459,0.3116028149\H,4.4271104348,-
 4.1063921974,-0.8841048578\H,5.8179717257,-2.1295295667,-0.2897454482\
 H,0.7109935815,-3.9191160754,-0.7309972367\H,2.1071799149,-4.913668965
 6,-1.0953988196\H,4.3013475092,0.8817101751,1.017483784\H,6.3425329322
 ,-0.1531126234,2.0574263204\H,7.8340590777,1.7607489172,0.8848779094\H
 ,6.9114061928,2.0343602242,-1.2703435907\H,6.0928052476,4.155549276,-0
 .0983416852\H,4.5174822143,3.3658098959,0.0565652774\H,5.7825363221,3.
 9801595098,-2.3820253243\H,5.3590812303,2.4435949244,2.0738683649\H,7.
 269593006,-0.3662448815,-0.6130096394\\Version=ES64L-G16RevC.01\State=
 1-A\HF=-1930.5769109\RMSD=6.227e-12\RMSF=4.434e-07\Dipole=3.9258693,0.
 3988318,0.0523743\Quadrupole=23.0144128,-5.3990348,-17.615378,-1.85399
 17,-12.5092764,2.3538598\PG=C01 [X(C19H26N8O10)]\\@
 The archive entry for this job was punched.


 NOTHING PUZZLES ME MORE THAN TIME AND SPACE; AND YET NOTHING TROUBLES ME LESS
                                                          -- CHARLES LAMB (1810)
 Job cpu time:       7 days  1 hours 13 minutes 54.3 seconds.
 Elapsed time:       7 days  1 hours 14 minutes 23.1 seconds.
 File lengths (MBytes):  RWF=    431 Int=      0 D2E=      0 Chk=     56 Scr=      1
 Normal termination of Gaussian 16 at Thu Jul  6 16:03:28 2023.
